DF-ISE text

Info {
  version   = 1.0
  type      = xyplot
  datasets  = [
    "frequency"
    "v(Ntop)" "v(Ptop)" "v(Pbot)" "a(Ntop,Ntop)" "c(Ntop,Ntop)"
    "a(Ntop,Ptop)" "c(Ntop,Ptop)" "a(Ntop,Pbot)" "c(Ntop,Pbot)" "a(Ptop,Ntop)"
    "c(Ptop,Ntop)" "a(Ptop,Ptop)" "c(Ptop,Ptop)" "a(Ptop,Pbot)" "c(Ptop,Pbot)"
    "a(Pbot,Ntop)" "c(Pbot,Ntop)" "a(Pbot,Ptop)" "c(Pbot,Ptop)" "a(Pbot,Pbot)"
    "c(Pbot,Pbot)" ]
  functions = [
    Frequency
    Voltage Voltage Voltage Admittance Capacitance
    Admittance Capacitance Admittance Capacitance Admittance
    Capacitance Admittance Capacitance Admittance Capacitance
    Admittance Capacitance Admittance Capacitance Admittance
    Capacitance ]
}

Data {
      1.00000000000000E+04
      8.00000000000000E-01   0.00000000000000E+00  -5.00000000000000E-02  -1.51920465508412E-13   2.83560920982251E-15
     -1.84465183033741E-13  -2.73043967109549E-15  -4.07087294080913E-14  -1.05169538726740E-16  -1.84468781065771E-13
     -2.73043978298510E-15  -4.40569349974394E-12   2.73046366826462E-15   3.28035602074847E-14  -2.38852797054284E-20
     -4.07071158191519E-14  -1.05169426837146E-16   3.28019404460454E-14  -2.39971693088410E-20   1.51920465508412E-13
      1.05193424005821E-16
      1.00000000000000E+04
      8.00000000000000E-01   0.00000000000000E+00  -1.45555555555556E-01  -1.51920465508412E-13   2.83145153106548E-15
     -1.83165581382425E-13  -2.73041643135409E-15  -3.87906409634347E-14  -1.01035099708256E-16  -1.83163548082620E-13
     -2.73041654499572E-15  -1.51920465508412E-12   2.73044837645969E-15   3.15127523490833E-14  -3.18314661790681E-20
     -3.87891726054372E-14  -1.01034986066779E-16   3.15112799386716E-14  -3.19451076727525E-20  -1.51920465508412E-13
      1.01066931173435E-16
      1.00000000000000E+04
      8.00000000000000E-01   0.00000000000000E+00  -3.28172839506173E-01   3.03840931016824E-13   2.82467844253146E-15
     -1.81029415233135E-13  -2.73034519540602E-15  -3.57353191513963E-14  -9.43332471276637E-17  -1.81030948089261E-13
     -2.73034531178583E-15  -3.79801163771029E-12   2.73040077884394E-15   2.94189167088040E-14  -5.54670549575386E-20
     -3.57342535887142E-14  -9.43331307484023E-17   2.94178536629844E-14  -5.55834343023543E-20   0.00000000000000E+00
      9.43887141823377E-17
      1.00000000000000E+04
      8.00000000000000E-01   0.00000000000000E+00  -6.77174759945130E-01   3.03840931016824E-13   2.81453212994642E-15
     -1.77768973661760E-13  -2.73002499297313E-15  -3.13732031467706E-14  -8.45071369774871E-17  -1.77770365871567E-13
     -2.73002511317259E-15  -3.19032977567665E-12   2.73018071604295E-15   2.63401085883768E-14  -1.55602865123822E-19
     -3.13737287600009E-14  -8.45070167771942E-17   2.63406282148076E-14  -1.55723065293376E-19   3.03840931016824E-13
      8.46627398427168E-17
      1.00000000000000E+04
      8.00000000000000E-01   0.00000000000000E+00  -1.17717475994513E+00   3.03840931016824E-13   2.80277596572444E-15
     -1.73644494328237E-13  -2.72845990986031E-15  -2.69607426479233E-14  -7.43160558619526E-17  -1.73636117390758E-13
     -2.72846003367655E-15  -3.79801163771029E-12   2.72905906407393E-15   2.30998655402552E-14  -5.99030398131199E-19
     -2.69679981031746E-14  -7.43159320464764E-17   2.31071179283984E-14  -5.99154213694839E-19   3.03840931016824E-13
      7.49150862595025E-17
      1.00000000000000E+04
      8.00000000000000E-01   0.00000000000000E+00  -1.67717475994513E+00   9.11522793050471E-13   2.78960517540871E-15
     -1.67961462483153E-13  -2.72312098174261E-15  -2.35350070138005E-14  -6.64841936671397E-17  -1.67933906192536E-13
     -2.72312110797781E-15  -3.94993210321871E-12   2.72502365830659E-15   2.04647400750460E-14  -1.90255032710595E-18
     -2.35617626585217E-14  -6.64840674329871E-17   2.04914971862870E-14  -1.90267656137808E-18   3.03840931016824E-13
      6.83867439941822E-17
      1.00000000000000E+04
      8.00000000000000E-01   0.00000000000000E+00  -2.17717475994513E+00   7.59602327542059E-13   2.76717574170698E-15
     -1.56579045662053E-13  -2.70802698430927E-15  -2.01086810821704E-14  -5.91487573940042E-17  -1.56507553996089E-13
     -2.70802711092585E-15  -4.55761396525235E-13   2.71297512681124E-15   1.76854574912538E-14  -4.94801588751595E-18
     -2.01787871814462E-14  -5.91486307777896E-17   1.77555650190417E-14  -4.94814250377250E-18   1.51920465508412E-13
      6.40967732799505E-17
      1.00000000000000E+04
      8.00000000000000E-01   0.00000000000000E+00  -2.67717475994513E+00   3.03840931016824E-13   2.72520632989499E-15
     -1.34531156108271E-13  -2.67445453011388E-15  -1.59486054649645E-14  -5.07517997851435E-17  -1.34384662675934E-13
     -2.67445465334326E-15  -1.67112512059253E-12   2.68491498227376E-15   1.41501473417050E-14  -1.04603289268296E-17
     -1.60940030548187E-14  -5.07516765559728E-17   1.42955480624718E-14  -1.04604521560178E-17  -1.51920465508412E-13
      6.12121287113757E-17
      1.00000000000000E+04
      8.00000000000000E-01   0.00000000000000E+00  -3.17717475994513E+00   4.55761396525235E-13   2.66485974158267E-15
     -1.04762033430007E-13  -2.62311994216442E-15  -1.15695019070338E-14  -4.17397994208111E-17  -1.04528015286632E-13
     -2.62312005655640E-15  -1.82304558610094E-12   2.64066966272071E-15   1.03310743904112E-14  -1.75496061608239E-17
     -1.17966142843195E-14  -4.17396850289709E-17   1.05581897958167E-14  -1.75497205526815E-17   0.00000000000000E+00
      5.92894055813889E-17
      1.00000000000000E+04
      8.00000000000000E-01   0.00000000000000E+00  -3.67717475994513E+00   4.55761396525235E-13   2.60740125129956E-15
     -7.98617913123199E-14  -2.57302497126864E-15  -8.34274377449316E-15  -3.43762800316607E-17  -7.96029264083373E-14
     -2.57302507344104E-15  -1.51920465508412E-13   2.59675096527949E-15   7.48742956250641E-15  -2.37258918364473E-17
     -8.60065335340534E-15  -3.43761778600435E-17   7.74534720108833E-15  -2.37259940081390E-17   3.03840931016824E-13
      5.81021718684242E-17
      1.00000000000000E+04
      8.00000000000000E-01   0.00000000000000E+00  -4.17717475994513E+00   6.07681862033647E-13   2.56516686177898E-15
     -6.42895601550868E-14  -2.53578068890816E-15  -6.45232700828815E-15  -2.93861728699938E-17  -6.40652675736590E-14
     -2.53578077962477E-15  -1.82304558610094E-12   2.56379487686164E-15   5.81654070214252E-15  -2.80140972360567E-17
     -6.67949606710806E-15  -2.93860821537685E-17   6.04371610816414E-15  -2.80141879523188E-17  -1.51920465508412E-13
      5.74002701061098E-17
      1.00000000000000E+04
      8.00000000000000E-01   0.00000000000000E+00  -4.67717475994513E+00   4.55761396525235E-13   2.53379854882474E-15
     -5.44829997298177E-14  -2.50793007373529E-15  -5.30576095419066E-15  -2.58684750898786E-17  -5.43219255998778E-14
     -2.50793015488355E-15  -1.36728418957571E-12   2.53900393754260E-15   4.80266835881868E-15  -3.10737826582471E-17
     -5.46755090270904E-15  -2.58683939415372E-17   4.96445167033611E-15  -3.10738638065818E-17  -6.07681862033647E-13
      5.69422577477215E-17
      1.00000000000000E+04
      8.00000000000000E-01   0.00000000000000E+00  -5.17717475994513E+00  -3.03840931016824E-13   2.50721022243249E-15
     -4.73445982966024E-14  -2.48419086385958E-15  -4.49688969208256E-15  -2.30193585741507E-17  -4.72433458026044E-14
     -2.48419093804334E-15  -1.36728418957571E-12   2.51776535545855E-15   4.08467131497848E-15  -3.35744174143949E-17
     -4.59923780172184E-15  -2.30192843900583E-17   4.18701160805773E-15  -3.35744915984593E-17   4.55761396525235E-13
      5.65937759883475E-17
      1.00000000000000E+04
      8.00000000000000E-01   0.00000000000000E+00  -5.67717475994513E+00   6.07681862033647E-13   2.48138246776674E-15
     -4.11696190427705E-14  -2.46100015417389E-15  -3.82240325957082E-15  -2.03823135937738E-17  -4.11043782039497E-14
     -2.46100022376539E-15  -2.43072744813459E-12   2.49690947090324E-15   3.48129328536789E-15  -3.59092471353791E-17
     -3.88881957189631E-15  -2.03822440021890E-17   3.54770914121025E-15  -3.59093167269573E-17  -6.07681862033647E-13
      5.62915607281137E-17
      1.00000000000000E+04
      8.00000000000000E-01   0.00000000000000E+00  -6.17717475994513E+00   3.03840931016824E-13   2.45309859041783E-15
     -3.46873363859971E-14  -2.43545104459676E-15  -3.14924180158037E-15  -1.76475458218828E-17  -3.46372990399665E-14
     -2.43545111053144E-15  -1.67112512059253E-12   2.47380414672209E-15   2.87386157426580E-15  -3.83530361897984E-17
     -3.19689697869401E-15  -1.76474798871176E-17   2.92151290860074E-15  -3.83531021245557E-17  -1.51920465508412E-13
      5.60005820117816E-17
      1.00000000000000E+04
      8.00000000000000E-01   0.00000000000000E+00  -6.67717475994513E+00   3.03840931016824E-13   2.41891784781416E-15
     -2.65955701868077E-14  -2.40438649065714E-15  -2.35933737479130E-15  -1.45313571576596E-17  -2.65593621530405E-14
     -2.40438655181749E-15  -7.59602327542059E-13   2.44555048948351E-15   2.15557809362767E-15  -4.11639376647151E-17
     -2.39766709632597E-15  -1.45312959974582E-17   2.19391653234435E-15  -4.11639988249290E-17  -7.59602327542059E-13
      5.56952948220209E-17
      1.00000000000000E+04
      8.00000000000000E-01   0.00000000000000E+00  -7.17717475994513E+00   0.00000000000000E+00   2.37658477472252E-15
     -1.62891593522208E-14  -2.36570109037444E-15  -1.40849159292527E-15  -1.08836843487793E-17  -1.62537929047361E-14
     -2.36570114264613E-15  -9.11522793050471E-13   2.41018312074068E-15   1.28588503056177E-15  -4.44819780931714E-17
     -1.44292041459327E-15  -1.08836320769424E-17   1.32031588134563E-15  -4.44820303649949E-17   3.03840931016824E-13
      5.53656624417413E-17
      1.00000000000000E+04
      8.00000000000000E-01   0.00000000000000E+00  -7.67717475994513E+00   0.00000000000000E+00   2.33240574395743E-15
     -6.57321584269290E-15  -2.32515182596247E-15  -5.51409548446837E-16  -7.25391799536274E-18  -6.54415351999345E-15
     -2.32515186342214E-15  -1.97496605160935E-12   2.37295680325962E-15   4.98918275488426E-16  -4.78049398358581E-17
     -5.84590939518148E-16  -7.25388053572028E-18   5.32106208947106E-16  -4.78049772955043E-17   1.51920465508412E-13
      5.50588578308527E-17
      1.00000000000000E+04
      8.00000000000000E-01   0.00000000000000E+00  -8.17717475994513E+00   0.00000000000000E+00   2.30185309216316E-15
     -1.71249338717841E-15  -2.29701043855611E-15  -1.36725119091806E-16  -4.84265360719604E-18  -1.67867910239152E-15
     -2.29701046026323E-15  -1.21536372406729E-12   2.34703388347256E-15   1.17397057437386E-16  -5.00234232069697E-17
     -1.68312951574498E-16  -4.84263190008769E-18   1.48987591899025E-16  -5.00234449140786E-17  -3.03840931016824E-13
      5.48660768127964E-17
      1.00000000000000E+04
      8.00000000000000E-01   0.00000000000000E+00  -8.67717475994513E+00  -1.51920465508412E-13   2.28807057230898E-15
     -4.20978746754133E-16  -2.28427086506230E-15  -3.00275796906714E-17  -3.79970724684195E-18  -3.94057632346720E-16
     -2.28427087623428E-15  -9.11522793050471E-13   2.33525973101735E-15   1.93479639880309E-17  -5.09888547809184E-17
     -5.89903251596986E-17  -3.79969607485354E-18   4.82930200094313E-17  -5.09888659529070E-17  -1.51920465508412E-13
      5.47885620274366E-17
      1.00000000000000E+04
      8.00000000000000E-01   0.00000000000000E+00  -9.17717475994513E+00   0.00000000000000E+00   2.28297110004268E-15
     -1.71275658144526E-16  -2.27953552650007E-15  -9.50900161763850E-18  -3.43557354275015E-18  -1.47186656951260E-16
     -2.27953553215933E-15  -3.79801163771029E-12   2.33086606112109E-15   3.14668932167067E-19  -5.13305289607057E-17
     -3.41393430384823E-17  -3.43556788348676E-18   2.49453927045982E-17  -5.13305346199689E-17  -3.03840931016824E-13
      5.47661025034955E-17
      1.00000000000000E+04
      8.00000000000000E-01   0.00000000000000E+00  -9.67717475994513E+00   3.03840931016824E-13   2.28098947981646E-15
     -1.17207420435788E-16  -2.27768318373306E-15  -4.62298374686969E-18  -3.30629608388417E-18  -9.89269104161076E-17
     -2.27768318668204E-15  -1.67112512059253E-12   2.32913946611149E-15  -6.61533155125520E-18  -5.14562794288135E-17
     -2.22643134836651E-17  -3.30629313491004E-18   1.10327398580173E-17  -5.14562823777876E-17   0.00000000000000E+00
      5.47625755123956E-17
      1.00000000000000E+04
      8.00000000000000E-01   0.00000000000000E+00  -1.01771747599451E+01   7.59602327542059E-13   2.28002267146186E-15
     -9.04046853427941E-17  -2.27677251899017E-15  -2.20222948197355E-18  -3.25015247210931E-18  -8.08002439597788E-17
     -2.27677252057889E-15  -2.73456837915141E-12   2.32828765930408E-15  -2.02835409886329E-17  -5.15151387226979E-17
     -8.88296380346889E-18  -3.25015088341814E-18  -1.36001492543833E-17  -5.15151403113889E-17   1.51920465508412E-13
      5.47652911954011E-17
      1.00000000000000E+04
      8.00000000000000E-01   0.00000000000000E+00  -1.06771747599451E+01   3.03840931016824E-13   2.27939374766275E-15
     -6.96636964278908E-17  -2.27617697878004E-15  -5.75433695031026E-19  -3.21676888316440E-18  -8.17339243183384E-17
     -2.27617697963686E-15  -9.11522793050471E-13   2.32773062675328E-15  -6.59296269295972E-17  -5.15536471160772E-17
      1.26747557348599E-17  -3.21676802634421E-18  -7.91656924447918E-17  -5.15536479728972E-17   0.00000000000000E+00
      5.47704159988425E-17
      1.00000000000000E+04
      8.00000000000000E-01   0.00000000000000E+00  -1.11771747599451E+01   0.00000000000000E+00   2.27888851021069E-15
     -5.90366382126130E-17  -2.27569776706906E-15   3.40900649381497E-19  -3.19074314229721E-18  -1.24166674244409E-16
     -2.27569776742909E-15  -4.86145489626918E-12   2.32728384247133E-15  -2.25176568305179E-16  -5.15860750406545E-17
      6.73797599368256E-17  -3.19074278227388E-18  -2.92214209495296E-16  -5.15860754006776E-17   1.51920465508412E-13
      5.47768181825802E-17
      1.00000000000000E+04
      8.00000000000000E-01   0.00000000000000E+00  -1.16771747599451E+01   1.21536372406729E-12   2.27843685549950E-15
     -5.23640724977833E-17  -2.27526963190884E-15   7.85842557825824E-19  -3.16722359080501E-18  -2.93034366343612E-16
     -2.27526963164482E-15  -1.36728418957571E-12   2.32688657200725E-15  -7.69758438761184E-16  -5.16169403605135E-17
      2.43209513078369E-16  -3.16722385483646E-18  -1.01216710864733E-15  -5.16169400964819E-17   1.51920465508412E-13
      5.47841639501888E-17
      1.00000000000000E+04
      8.00000000000000E-01   0.00000000000000E+00  -1.21771747599451E+01  -3.03840931016824E-13   2.27801439071166E-15
     -4.68939362161980E-17  -2.27486979762511E-15   1.00344035261891E-18  -3.14459308672195E-18  -8.68555609381586E-16
     -2.27486979590350E-15  -2.43072744813459E-12   2.32651756593483E-15  -2.57210936223258E-15  -5.16477700313862E-17
      8.20701437310309E-16  -3.14459480831188E-18  -3.39180124876329E-15  -5.16477683097963E-17   1.51920465508412E-13
      5.47923631177982E-17
      1.00000000000000E+04
      8.00000000000000E-01   0.00000000000000E+00  -1.26771747599451E+01  -3.03840931016824E-13   2.27761181982030E-15
     -4.66684003642666E-17  -2.27448955926517E-15   1.13509691843343E-18  -3.12226055552328E-18  -2.71199699729568E-15
     -2.27448955332847E-15   6.07681862033647E-13   2.32616869796163E-15  -8.33024315674711E-15  -5.16791446322955E-17
      2.66545438184108E-15  -3.12226649221398E-18  -1.09945644247314E-14  -5.16791386956048E-17   1.51920465508412E-13
      5.48014051885182E-17
      1.00000000000000E+04
      8.00000000000000E-01   0.00000000000000E+00  -1.31771747599451E+01  -1.51920465508412E-13   2.27722510712975E-15
     -4.70377640054450E-17  -2.27412513385242E-15   1.25751324161385E-18  -3.09997327734000E-18  -8.40107184251145E-15
     -2.27412511546672E-15  -1.82304558610094E-12   2.32583644741735E-15  -2.60742247393694E-14  -5.17113319507702E-17
      8.35575738256179E-15  -3.09999166302255E-18  -3.44287068363797E-14  -5.17113135650875E-17   4.55761396525235E-13
      5.48113052280764E-17
      1.00000000000000E+04
      8.00000000000000E-01   0.00000000000000E+00  -1.36771747599451E+01  -1.51920465508412E-13   2.27685218159293E-15
     -4.68479259905133E-17  -2.27377458841215E-15   1.42743113452703E-18  -3.07759318074560E-18  -2.53274394031670E-14
     -2.27377453412701E-15   4.55761396525235E-13   2.32551901438889E-15  -7.87845924212751E-14  -5.17444802609466E-17
      2.52817769988223E-14  -3.07764746589471E-18  -1.04064925927313E-13  -5.17444259757974E-17   3.03840931016824E-13
      5.48220734415898E-17
      1.00000000000000E+04
      8.00000000000000E-01   0.00000000000000E+00  -1.41771747599451E+01   1.51920465508412E-13   2.27649177856991E-15
     -5.03374334203200E-17  -2.27343675972511E-15   1.72359836264557E-18  -3.05501884465226E-18  -7.38434472666578E-14
     -2.27343660532700E-15   2.73456837915141E-12   2.32521525614446E-15  -2.29634756437179E-13  -5.17786508166601E-17
      7.37989331063989E-14  -3.05517324277368E-18  -3.03431956752602E-13  -5.17784964185385E-17   3.03840931016824E-13
      5.48336696610540E-17
      1.00000000000000E+04
      8.00000000000000E-01   0.00000000000000E+00  -1.46771747599451E+01  -4.55761396525235E-13   2.27614301140827E-15
     -4.69517840680066E-17  -2.27311085829119E-15   2.30522885628773E-18  -3.03215311722827E-18  -2.07766215943022E-13
     -2.27311043462952E-15   9.11522793050471E-13   2.32492418171239E-15  -6.45244256429689E-13  -5.18137470828245E-17
      2.07720579629034E-13  -3.03257677889483E-18  -8.52962528670843E-13  -5.18133234211580E-17   1.06344325855888E-12
      5.48459001991480E-17
      1.00000000000000E+04
      8.00000000000000E-01   0.00000000000000E+00  -1.51771747599451E+01  -1.51920465508412E-13   2.27580520615182E-15
     -4.70428096649417E-17  -2.27279632459563E-15   3.51064596149849E-18  -3.00888155625884E-18  -5.63448022283999E-13
     -2.27279520342393E-15   3.79801163771029E-12   2.32464449985528E-15  -1.74662515708373E-12  -5.18492964311227E-17
      5.63402264328768E-13  -3.01000272795383E-18  -2.31002389743021E-12  -5.18481752594277E-17   1.51920465508412E-12
      5.48581779875954E-17
      1.00000000000000E+04
      8.00000000000000E-01   0.00000000000000E+00  -1.56771747599451E+01   3.03840931016824E-13   2.27547783991994E-15
     -5.00892571919324E-17  -2.27249279468143E-15   6.06980456513732E-18  -2.98504523897703E-18  -1.47144361690738E-12
     -2.27248993548488E-15   9.57098932702994E-12   2.32437388042438E-15  -4.55098312820908E-12  -5.18839449384287E-17
      1.47139751643704E-12  -2.98790443550889E-18  -6.02237458817823E-12  -5.18810857418970E-17   5.01337536177759E-12
      5.48689901775891E-17
      1.00000000000000E+04
      8.00000000000000E-01   0.00000000000000E+00  -1.61771747599451E+01   3.03840931016824E-13   2.27516052924809E-15
     -5.74163858131784E-17  -2.27220013523159E-15   1.15060838621707E-17  -2.96039401685835E-18  -3.69651556970877E-12
     -2.27219311666702E-15   1.36728418957571E-11   2.32410750844471E-15  -1.14021801874206E-11  -5.19143917765509E-17
      3.69646738208109E-12  -2.96741258142210E-18  -1.50986360529529E-11  -5.19073732119873E-17   1.16978758441477E-11
      5.48747857931494E-17
      1.00000000000000E+04
      8.00000000000000E-01   0.00000000000000E+00  -1.66771747599451E+01   7.59602327542059E-13   2.27485305440317E-15
     -7.66486164066790E-17  -2.27191855136027E-15   2.27712067355730E-17  -2.93450304354529E-18  -8.92125171241540E-12
     -2.27190199246163E-15   4.04108438252375E-11   2.32383530076104E-15  -2.74314267245871E-11  -5.19333082991958E-17
      8.92120021071681E-12  -2.95106194219083E-18  -3.63526041529592E-11  -5.19167494005501E-17   2.74976042570225E-11
      5.48678113423486E-17
      1.00000000000000E+04
      8.00000000000000E-01   0.00000000000000E+00  -1.71771747599451E+01  -4.55761396525235E-13   2.27455542233130E-15
     -1.05590113419766E-16  -2.27164878982756E-15   4.48137277179618E-17  -2.90663250381683E-18  -2.06470813208731E-11
     -2.27161132021575E-15   8.37081764951349E-11   2.32353694974273E-15  -6.32499738420266E-11  -5.19256295257902E-17
      2.06470221311532E-11  -2.94410211563359E-18  -8.38969511594069E-11  -5.18881599139735E-17   6.31989136514993E-11
      5.48322620293206E-17
      1.00000000000000E+04
      8.00000000000000E-01   0.00000000000000E+00  -1.76771747599451E+01  -1.51920465508412E-13   2.27426797549331E-15
     -1.56435617456883E-16  -2.27139245708887E-15   8.37140079879412E-17  -2.87551840438415E-18  -4.57070612826644E-11
     -2.27131138413643E-15   1.87469854437380E-10   2.32317413098679E-15  -1.39398357009289E-10  -5.18627468488391E-17
      4.57069880240654E-11  -2.95659135681724E-18  -1.85105261297606E-10  -5.17816738964060E-17   1.38551464543672E-10
      5.47382652528813E-17
      1.00000000000000E+04
      8.00000000000000E-01   0.00000000000000E+00  -1.81771747599451E+01  -3.03840931016824E-13   2.27399154256584E-15
     -2.39039940177637E-16  -2.27115242064125E-15   1.41484167903227E-16  -2.83912192496289E-18  -9.64362296322869E-11
     -2.27098541301648E-15   3.92258641942719E-10   2.32268065344836E-15  -2.92552438160265E-10  -5.16952404296370E-17
      9.64361360436359E-11  -3.00612954974870E-18  -3.88988432716936E-10  -5.15282328048514E-17   2.91839214241659E-10
      5.45343623543945E-17
      1.00000000000000E+04
      8.00000000000000E-01   0.00000000000000E+00  -1.86771747599451E+01  -4.55761396525235E-13   2.27372758731244E-15
     -3.26377043384899E-16  -2.27093312332564E-15   2.06744051421926E-16  -2.79446398704586E-18  -1.92986335583228E-10
     -2.27060752736604E-15   7.76465499213493E-10   2.32195541979017E-15  -5.81701124878361E-10  -5.13478924228218E-17
      1.92986215340245E-10  -3.12005994663444E-18  -7.74687133467442E-10  -5.10222964632334E-17   5.81855382897217E-10
      5.41423564095316E-17
      1.00000000000000E+04
      8.00000000000000E-01   0.00000000000000E+00  -1.91771747599451E+01   0.00000000000000E+00   2.27347823872482E-15
     -3.96538443578743E-16  -2.27074041450292E-15   2.54524011877688E-16  -2.73782422216606E-18  -3.64131446478132E-10
     -2.27014406536201E-15   1.45524613910508E-09   2.32086989338356E-15  -1.08906862748102E-09  -5.07258280196468E-17
      3.64131304415352E-10  -3.33417336306075E-18  -1.45319967738157E-09  -5.01294788787523E-17   1.08896589676430E-09
      5.34636522403925E-17
      1.00000000000000E+04
      8.00000000000000E-01   0.00000000000000E+00  -1.96771747599451E+01  -4.55761396525235E-13   2.27324602462778E-15
     -4.23559528228758E-16  -2.27058037878116E-15   2.66586825420276E-16  -2.66564584760279E-18  -6.43783961078380E-10
     -2.26956213014114E-15   2.54952925216217E-09   2.31930494402080E-15  -1.90755336325074E-09  -4.97428138775458E-17
      6.43783805012789E-10  -3.68389448762794E-18  -2.55133690167444E-09  -4.87245652375232E-17   1.90781720585464E-09
      5.24084597250237E-17
      1.00000000000000E+04
      8.00000000000000E-01   0.00000000000000E+00  -2.01771747599451E+01   3.03840931016824E-13   2.27303321382046E-15
     -4.09293004321651E-16  -2.27045706983787E-15   2.47598620331152E-16  -2.57614398279047E-18  -1.06144910382915E-09
     -2.26884567448208E-15   4.17538207403319E-09   2.31721611485857E-15  -3.11052250421527E-09  -4.83704403744900E-17
      1.06144894373541E-09  -4.18753933858403E-18  -4.17197120036935E-09  -4.67590450186940E-17   3.11117921314677E-09
      5.09465843567454E-17
      1.00000000000000E+04
      8.00000000000000E-01   0.00000000000000E+00  -2.06771747599451E+01  -1.51920465508412E-13   2.27284098655163E-15
     -3.72452081096989E-16  -2.27037019010049E-15   2.14723175031895E-16  -2.47079645166606E-18  -1.62981667053549E-09
     -2.26801015824962E-15   6.34435056009679E-09   2.31468841360246E-15  -4.71566953396537E-09  -4.66782553522607E-17
      1.62981651124283E-09  -4.83082830251798E-18  -6.34548583047503E-09  -4.43182235014131E-17   4.71561124938110E-09
      4.91490518034424E-17
      1.00000000000000E+04
      8.00000000000000E-01   0.00000000000000E+00  -2.11771747599451E+01   0.00000000000000E+00   2.27266894765101E-15
     -3.32001255030217E-16  -2.27031449328252E-15   1.80641883802656E-16  -2.35445436917593E-18  -2.33785648506337E-09
     -2.26710193722516E-15   9.00949128651085E-09   2.31192544683715E-15  -6.66906062374175E-09  -4.48235096098474E-17
      2.33785633042653E-09  -5.56701042651622E-18  -9.00691677354302E-09  -4.16109535525100E-17   6.66885267442275E-09
      4.71779639793622E-17
      1.00000000000000E+04
      8.00000000000000E-01   0.00000000000000E+00  -2.16771747599451E+01  -3.03840931016824E-13   2.27251531760690E-15
     -2.99987138556085E-16  -2.27028157113227E-15   1.49856181432858E-16  -2.23374647561433E-18  -3.15512206461521E-09
     -2.26618010091940E-15   1.20228337198702E-08   2.30916929817104E-15  -8.86424567932920E-09  -4.29891972504298E-17
      3.15512191724627E-09  -6.33521668848607E-18  -1.20193674467396E-08  -3.88877270375615E-17   8.86455916241583E-09
      4.52229437251653E-17
      1.00000000000000E+04
      8.00000000000000E-01   0.00000000000000E+00  -2.21771747599451E+01  -6.07681862033647E-13   2.27237759110386E-15
     -2.64691949023070E-16  -2.27026266818092E-15   1.23249191407202E-16  -2.11492292370440E-18  -4.04355287523035E-09
     -2.26529496887308E-15   1.52256209737185E-08   2.30661348299888E-15  -1.11813983437542E-08  -4.13185141253169E-17
      4.04355273485731E-09  -7.08262223155783E-18  -1.52249509553394E-08  -3.63508148174735E-17   1.11814981818846E-08
      4.34334370497416E-17
      1.00000000000000E+04
      8.00000000000000E-01   0.00000000000000E+00  -2.26771747599451E+01   4.55761396525235E-13   2.27225318867424E-15
     -2.34488733292496E-16  -2.27025071042484E-15   1.01009845869216E-16  -2.00247824999912E-18  -4.96833792804104E-09
     -2.26447720949574E-15   1.84879610500462E-08   2.30436430151847E-15  -1.35195300070114E-08  -3.98870920219926E-17
      4.96833779671603E-09  -7.77597917909730E-18  -1.84878677027100E-08  -3.41135910929034E-17   1.35192503051281E-08
      4.18895702711276E-17
      1.00000000000000E+04
      8.00000000000000E-01   0.00000000000000E+00  -2.31771747599451E+01   9.11522793050471E-13   2.27213983195375E-15
     -2.09576983896369E-16  -2.27024093763479E-15   8.29793678358001E-17  -1.89889431991316E-18  -5.90322244634731E-09
     -2.26373874952427E-15   2.17132325327898E-08   2.30245071884603E-15  -1.58094053208553E-08  -3.87119693198284E-17
      5.90322232146282E-09  -8.40108243045130E-18  -2.17126275593118E-08  -3.22097812093060E-17   1.58091474817364E-08
      4.06108636391718E-17
      1.00000000000000E+04
      8.00000000000000E-01   0.00000000000000E+00  -2.36771747599451E+01   0.00000000000000E+00   2.27203565728599E-15
     -1.86782416254801E-16  -2.27023059896734E-15   6.86316602043537E-17  -1.80505831912663E-18  -6.83095944956588E-09
     -2.26307900917548E-15   2.48438575655216E-08   2.30085359799076E-15  -1.80115377837250E-08  -3.77745888143961E-17
      6.83095933174173E-09  -8.95664811099640E-18  -2.48424970468396E-08  -3.06229990225290E-17   1.80116903906773E-08
      3.95796471326382E-17
      1.00000000000000E+04
      8.00000000000000E-01   0.00000000000000E+00  -2.41771747599451E+01   3.03840931016824E-13   2.27193918795135E-15
     -1.67754163956994E-16  -2.27021834542836E-15   5.72720088122165E-17  -1.72084252345097E-18  -7.74146834521853E-09
     -2.26249105576310E-15   2.78500597370021E-08   2.29953210635643E-15  -2.01082143688554E-08  -3.70410505914983E-17
      7.74146823317482E-09  -9.44813218870951E-18  -2.78496825447742E-08  -2.93137609262358E-17   2.01081928146934E-08
      3.87618931144871E-17
      1.00000000000000E+04
      8.00000000000000E-01   0.00000000000000E+00  -2.46771747599451E+01   0.00000000000000E+00   2.27184926040937E-15
     -1.54731708948882E-16  -2.27020367930830E-15   4.82363247530165E-17  -1.64558110209555E-18  -8.62959074185127E-09
     -2.26196573004424E-15   3.07257622286108E-08   2.29844035479173E-15  -2.20954100475797E-08  -3.64746247467219E-17
      8.62959063564765E-09  -9.88353036616555E-18  -3.07250006349983E-08  -2.82366754826586E-17   2.20956163444744E-08
      3.81202058486829E-17
      1.00000000000000E+04
      8.00000000000000E-01   0.00000000000000E+00  -2.51771747599451E+01  -1.51920465508412E-13   2.27176495053211E-15
     -1.42722140858775E-16  -2.27018656623909E-15   4.09815382042557E-17  -1.57838429432290E-18  -9.49325019870877E-09
     -2.26149385443387E-15   3.34720284836063E-08   2.29753562528629E-15  -2.39767243542705E-08  -3.60417708509988E-17
      9.49325009725902E-09  -1.02710960995494E-17  -3.34699744105498E-08  -2.73490590457827E-17   2.39768474688651E-08
      3.76201551449733E-17
      1.00000000000000E+04
      8.00000000000000E-01   0.00000000000000E+00  -2.56771747599451E+01   1.51920465508412E-13   2.27168551422646E-15
     -1.30070976965255E-16  -2.27016719580387E-15   3.50938439269526E-17  -1.51831842347361E-18  -1.03321697943649E-08
     -2.26106719072066E-15   3.60926565136264E-08   2.29678142200849E-15  -2.57594602142170E-08  -3.57142312869317E-17
      1.03321696982446E-08  -1.06183235066834E-17  -3.60916298773865E-08  -2.66142262037203E-17   2.57594822111408E-08
      3.72325497095265E-17
      1.00000000000000E+04
      8.00000000000000E-01   0.00000000000000E+00  -2.61771747599451E+01   3.03840931016824E-13   2.27161034334220E-15
     -1.22577314586029E-16  -2.27014584620502E-15   3.02687454392814E-17  -1.46449713811004E-18  -1.11470530942422E-08
     -2.26067872461119E-15   3.85990403535842E-08   2.29614790506130E-15  -2.74523156858727E-08  -3.54691804488532E-17
      1.11470530018928E-08  -1.09316187319599E-17  -3.85993686575389E-08  -2.60020588549967E-17   2.74518761969045E-08
      3.69336775863726E-17
      1.00000000000000E+04