DF-ISE text

Info {
  version   = 1.0
  type      = xyplot
  datasets  = [
    "frequency"
    "v(Ntop)" "v(Ptop)" "v(Pbot)" "a(Ntop,Ntop)" "c(Ntop,Ntop)"
    "a(Ntop,Ptop)" "c(Ntop,Ptop)" "a(Ntop,Pbot)" "c(Ntop,Pbot)" "a(Ptop,Ntop)"
    "c(Ptop,Ntop)" "a(Ptop,Ptop)" "c(Ptop,Ptop)" "a(Ptop,Pbot)" "c(Ptop,Pbot)"
    "a(Pbot,Ntop)" "c(Pbot,Ntop)" "a(Pbot,Ptop)" "c(Pbot,Ptop)" "a(Pbot,Pbot)"
    "c(Pbot,Pbot)" ]
  functions = [
    Frequency
    Voltage Voltage Voltage Admittance Capacitance
    Admittance Capacitance Admittance Capacitance Admittance
    Capacitance Admittance Capacitance Admittance Capacitance
    Admittance Capacitance Admittance Capacitance Admittance
    Capacitance ]
}

Data {
      1.00000000000000E+04
      8.00000000000000E-01   0.00000000000000E+00  -5.00000000000000E-02  -1.51920465508412E-13   7.87114473393635E-16
     -1.59142097383833E-15  -6.81930170575483E-16  -1.21478362474592E-15  -1.05184302818247E-16  -1.59285389048328E-15
     -6.81930170744583E-16  -2.12688651711777E-12   6.81943617639421E-16   3.27753364152328E-16  -1.34468953704592E-20
     -1.21336811598199E-15  -1.05184302649167E-16   3.26345457514780E-16  -1.34470644597914E-20  -1.51920465508412E-13
      1.05197749712773E-16
      1.00000000000000E+04
      8.00000000000000E-01   0.00000000000000E+00  -1.45555555555556E-01   6.07681862033647E-13   7.82969247925490E-16
     -1.57898144213253E-15  -6.81915593700135E-16  -1.11562797532092E-15  -1.01053654225417E-16  -1.58025036053196E-15
     -6.81915593893183E-16  -7.59602327542059E-13   6.81934373357627E-16   3.14967219926581E-16  -1.87794653698240E-20
     -1.11434180621986E-15  -1.01053654032380E-16   3.13684375888968E-16  -1.87796584105438E-20   4.55761396525235E-13
      1.01072433690680E-16
      1.00000000000000E+04
      8.00000000000000E-01   0.00000000000000E+00  -3.28172839506173E-01   3.03840931016824E-13   7.76234335674310E-16
     -1.55923770800350E-15  -6.81871206875325E-16  -9.64184367661669E-16  -9.43631287990731E-17  -1.56021379444190E-15
     -6.81871207108084E-16  -1.51920465508412E-13   6.81905690066063E-16   2.94320325642893E-16  -3.44829566776724E-20
     -9.63225188181733E-16  -9.43631285663205E-17   2.93361577003582E-16  -3.44831894314229E-20   4.55761396525235E-13
      9.43976117552135E-17
      1.00000000000000E+04
      8.00000000000000E-01   0.00000000000000E+00  -6.77174759945130E-01   1.51920465508412E-13   7.66257947134303E-16
     -1.53365323167548E-15  -6.81673298289240E-16  -7.65673380063166E-16  -8.45846488451151E-17  -1.53335469470780E-15
     -6.81673298583615E-16   1.82304558610094E-12   6.81773656299227E-16   2.64437840628656E-16  -1.00357715148962E-19
     -7.65857558086872E-16  -8.45846485507385E-17   2.64618823596484E-16  -1.00358009524318E-19   3.03840931016824E-13
      8.46850065603625E-17
      1.00000000000000E+04
      8.00000000000000E-01   0.00000000000000E+00  -1.17717475994513E+00   3.03840931016824E-13   7.55319718649002E-16
     -1.52059608260131E-15  -6.80719604371426E-16  -5.89376624667357E-16  -7.46001142776822E-17  -1.51587524337599E-15
     -6.80719604751721E-16   3.03840931016824E-13   6.81107878118551E-16   2.34682975335093E-16  -3.88273367101750E-19
     -5.94031971170117E-16  -7.46001138973987E-17   2.39341636382078E-16  -3.88273747387786E-19  -1.51920465508412E-13
      7.49883876445409E-17
      1.00000000000000E+04
      8.00000000000000E-01   0.00000000000000E+00  -1.67717475994513E+00   9.11522793050471E-13   7.44926981861562E-16
     -1.53367833002444E-15  -6.77561486149386E-16  -4.73930262586530E-16  -6.73654957122656E-17  -1.51668881369633E-15
     -6.77561486669211E-16  -3.03840931016824E-13   6.78773962020789E-16   2.13415068818953E-16  -1.21247535136283E-18
     -4.90867270492117E-16  -6.73654951924487E-17   2.30352850158998E-16  -1.21247587118076E-18  -1.51920465508412E-13
      6.85779710625702E-17
      1.00000000000000E+04
      8.00000000000000E-01   0.00000000000000E+00  -2.17717475994513E+00  -3.03840931016824E-13   7.30481693889836E-16
     -1.54399030462864E-15  -6.69041538922657E-16  -3.84802561158021E-16  -6.14401549672488E-17  -1.50153243841828E-15
     -6.69041539689200E-16  -3.03840931016824E-13   6.72099340965529E-16   1.92821286259013E-16  -3.05780127685724E-18
     -4.27213400709989E-16  -6.14401542007041E-17   2.35226934202508E-16  -3.05780204340163E-18  -4.55761396525235E-13
      6.44979562432345E-17
      1.00000000000000E+04
      8.00000000000000E-01   0.00000000000000E+00  -2.67717475994513E+00  -1.51920465508412E-13   7.06344853149050E-16
     -1.47390911152268E-15  -6.50740667841058E-16  -3.09429140576914E-16  -5.56041853080343E-17  -1.38940935698498E-15
     -6.50740668977241E-16  -3.03840931016824E-13   6.57028794107522E-16   1.63077654693442E-16  -6.28812513033182E-18
     -3.93866109722503E-16  -5.56041841718686E-17   2.47529797073612E-16  -6.28812626649939E-18   0.00000000000000E+00
      6.18923104377372E-17
      1.00000000000000E+04
      8.00000000000000E-01   0.00000000000000E+00  -3.17717475994513E+00   4.55761396525235E-13   6.71042115791908E-16
     -1.26475412479279E-15  -6.21440182992058E-16  -2.34207587441076E-16  -4.96019327999206E-17  -1.13127010699934E-15
     -6.21440184477863E-16  -1.82304558610094E-12   6.32051253391716E-16   1.22310498921053E-16  -1.06110689135663E-17
     -3.67657748057962E-16  -4.96019313141208E-17   2.55762140895123E-16  -1.06110703993665E-17   1.51920465508412E-13
      6.02130017123929E-17
      1.00000000000000E+04
      8.00000000000000E-01   0.00000000000000E+00  -3.67717475994513E+00  -1.51920465508412E-13   6.32488128676204E-16
     -9.97759611658492E-16  -5.88311292236665E-16  -1.65587622064576E-16  -4.41768364396245E-17  -8.33885910342713E-16
     -5.88311293836871E-16  -7.59602327542059E-13   6.03256179434412E-16   8.38287057106022E-17  -1.49448855979842E-17
     -3.29330990298730E-16  -4.41768348394213E-17   2.47573519190964E-16  -1.49448871981876E-17  -3.03840931016824E-13
      5.91217220373785E-17
      1.00000000000000E+04
      8.00000000000000E-01   0.00000000000000E+00  -4.17717475994513E+00   6.07681862033647E-13   6.00215910393477E-16
     -8.00892914245031E-16  -5.60186415949963E-16  -1.20087006266338E-16  -4.00294944435775E-17  -6.33480855388659E-16
     -5.60186417413255E-16  -2.12688651711777E-12   5.78574614796755E-16   5.97812600078287E-17  -1.83881973833815E-17
     -2.87415379464148E-16  -4.00294929802865E-17   2.27105624361951E-16  -1.83881988466726E-17  -4.55761396525235E-13
      5.84176918266173E-17
      1.00000000000000E+04
      8.00000000000000E-01   0.00000000000000E+00  -4.67717475994513E+00  -1.51920465508412E-13   5.75897723464310E-16
     -6.65462253384364E-16  -5.38869482634299E-16  -9.10565634636426E-17  -3.70282408300588E-17  -5.20878534027362E-16
     -5.38869483783226E-16   4.55761396525235E-13   5.59787199688370E-16   4.66958373152212E-17  -2.09177159051907E-17
     -2.35576334083047E-16  -3.70282396811371E-17   1.91218233196414E-16  -2.09177170541129E-17  -1.51920465508412E-13
      5.79459567347482E-17
      1.00000000000000E+04
      8.00000000000000E-01   0.00000000000000E+00  -5.17717475994513E+00  -6.07681862033647E-13   5.57089219147558E-16
     -5.43643119230206E-16  -5.22341850872214E-16  -7.00903596349332E-17  -3.47473682754475E-17  -4.36442252834999E-16
     -5.22341851657515E-16  -1.67112512059253E-12   5.45195541643031E-16   3.75520292476963E-17  -2.28536899835361E-17
     -1.77278355804285E-16  -3.47473674901490E-17   1.44741644303899E-16  -2.28536907688349E-17   4.55761396525235E-13
      5.76010582587109E-17
      1.00000000000000E+04
      8.00000000000000E-01   0.00000000000000E+00  -5.67717475994513E+00  -9.11522793050471E-13   5.41586658681637E-16
     -4.38814252891418E-16  -5.08703807594024E-16  -5.47773925080228E-17  -3.28828510876837E-17  -3.65692364242609E-16
     -5.08703808097290E-16  -3.03840931016824E-12   5.33147057206264E-16   3.03869032897361E-17  -2.44432491092039E-17
     -1.27851272948181E-16  -3.28828505844162E-17   1.03465281985931E-16  -2.44432496124712E-17   4.55761396525235E-13
      5.73261001961467E-17
      1.00000000000000E+04
      8.00000000000000E-01   0.00000000000000E+00  -6.17717475994513E+00  -1.51920465508412E-13   5.28101343333460E-16
     -3.63909943768399E-16  -4.96833081852966E-16  -4.44993748593883E-17  -3.12682614805888E-17  -3.13422101636429E-16
     -4.96833082188691E-16  -3.03840931016824E-13   5.22657511071391E-16   2.52219003041716E-17  -2.58244288822464E-17
     -9.49711518768348E-17  -3.12682611448631E-17   7.56886277967897E-17  -2.58244292179719E-17  -1.51920465508412E-13
      5.70926903628797E-17
      1.00000000000000E+04
      8.00000000000000E-01   0.00000000000000E+00  -6.67717475994513E+00  -3.03840931016824E-13   5.15927288164772E-16
     -3.12378517069674E-16  -4.86112227854844E-16  -3.75322647206279E-17  -2.98150603099768E-17  -2.75508889221872E-16
     -4.86112228096915E-16  -1.67112512059253E-12   5.13183485947185E-16   2.14726767791284E-17  -2.70712578499833E-17
     -7.44395559475759E-17  -2.98150600679078E-17   5.83901749641253E-17  -2.70712580920524E-17  -1.51920465508412E-13
      5.68863181595302E-17
      1.00000000000000E+04
      8.00000000000000E-01   0.00000000000000E+00  -7.17717475994513E+00   4.55761396525235E-13   5.04660760541145E-16
     -2.74996470632886E-16  -4.76187006240994E-16  -3.24170620626963E-17  -2.84737543002660E-17  -2.46203439660107E-16
     -4.76187006427664E-16  -7.59602327542059E-13   5.04412353332766E-16   1.85623308388997E-17  -2.82253469050241E-17
     -6.10589027571510E-17  -2.84737541136003E-17   4.72098630825893E-17  -2.82253470916902E-17  -4.55761396525235E-13
      5.66991012055719E-17
      1.00000000000000E+04
      8.00000000000000E-01   0.00000000000000E+00  -7.67717475994513E+00   9.11522793050471E-13   4.94053317137202E-16
     -2.46011087108415E-16  -4.66838594326749E-16  -2.83413884554091E-17  -2.72147228105331E-17  -2.22564268481697E-16
     -4.66838594477837E-16  -1.82304558610094E-12   4.96150337768015E-16   1.61572080314970E-17  -2.93117432892297E-17
     -5.17198841551068E-17  -2.72147226594459E-17   3.95259660569779E-17  -2.93117434403171E-17  -1.51920465508412E-13
      5.65264660995096E-17
      1.00000000000000E+04
      8.00000000000000E-01   0.00000000000000E+00  -8.17717475994513E+00   1.51920465508412E-13   4.83940580251436E-16
     -2.22460369422020E-16  -4.57921480175031E-16  -2.49190239879358E-17  -2.60191000764673E-17  -2.02552718139300E-16
     -4.57921480301566E-16   1.51920465508412E-13   4.88267987489694E-16   1.40828965880083E-17  -3.03465071873658E-17
     -4.48078081529250E-17  -2.60190999499336E-17   3.39757447435172E-17  -3.03465073138995E-17   3.03840931016824E-13
      5.63656072630427E-17
      1.00000000000000E+04
      8.00000000000000E-01   0.00000000000000E+00  -8.67717475994513E+00  -1.51920465508412E-13   4.74206858085332E-16
     -2.02555731241984E-16  -4.49332587388033E-16  -2.19829910912897E-17  -2.48742706973512E-17  -1.85059200877934E-16
     -4.49332587496616E-16  -3.79801163771029E-12   4.80673047930258E-16   1.22371815146595E-17  -3.13404604324214E-17
     -3.95254602184717E-17  -2.48742705887694E-17   2.97713771423801E-17  -3.13404605410032E-17   4.55761396525235E-13
      5.62147311292125E-17
      1.00000000000000E+04
      8.00000000000000E-01   0.00000000000000E+00  -9.17717475994513E+00  -1.51920465508412E-13   4.64766343463223E-16
     -1.85381066059296E-16  -4.40994873867173E-16  -1.94592939064085E-17  -2.37714695960761E-17  -1.69554198392557E-16
     -4.40994873961840E-16   3.03840931016824E-13   4.73296057925291E-16   1.05389538817625E-17  -3.23011839619564E-17
     -3.53486074207546E-17  -2.37714695014124E-17   2.64330683289846E-17  -3.23011840566202E-17  -1.51920465508412E-13
      5.60726535574594E-17
      1.00000000000000E+04
      8.00000000000000E-01   0.00000000000000E+00  -9.67717475994513E+00  -1.51920465508412E-13   4.55552306270881E-16
     -1.70184195761988E-16  -4.32847911392425E-16  -1.72674204336552E-17  -2.27043948785082E-17  -1.55817219883390E-16
     -4.32847911475003E-16  -2.88648884465982E-12   4.66082083867136E-16   8.85961853229470E-18  -3.32341723916938E-17
     -3.16703286854730E-17  -2.27043947959316E-17   2.32855131104001E-17  -3.32341724742703E-17  -3.03840931016824E-13
      5.59385672696739E-17
      1.00000000000000E+04
      8.00000000000000E-01   0.00000000000000E+00  -1.01771747599451E+01   3.03840931016824E-13   4.46510551768469E-16
     -1.56418324291575E-16  -4.24842180049385E-16  -1.53348688911308E-17  -2.16683717191293E-17  -1.44234199258072E-16
     -4.24842180118854E-16   1.21536372406729E-12   4.58985711277089E-16   6.84396311518697E-18  -3.41435311570314E-17
     -2.75050307182191E-17  -2.16683716496621E-17   1.90207559139441E-17  -3.41435312264986E-17  -1.51920465508412E-13
      5.58119028757907E-17
      1.00000000000000E+04
      8.00000000000000E-01   0.00000000000000E+00  -1.06771747599451E+01   6.07681862033647E-13   4.37595521584107E-16
     -1.43859009811645E-16  -4.16935657559670E-16  -1.36573758191264E-17  -2.06598640244634E-17  -1.36965869779599E-16
     -4.16935657609082E-16  -2.12688651711777E-12   4.51968042216592E-16   3.33270384823030E-18  -3.50323846072140E-17
     -2.06718518890676E-17  -2.06598639750524E-17   1.03588143915305E-17  -3.50323846566251E-17  -1.51920465508412E-13
      5.56922486309709E-17
      1.00000000000000E+04
      8.00000000000000E-01   0.00000000000000E+00  -1.11771747599451E+01   4.55761396525235E-13   4.28768304071508E-16
     -1.32525310428402E-16  -4.09092075388876E-16  -1.21970943951974E-17  -1.96762286827008E-17  -1.40681377014841E-16
     -4.09092075393045E-16  -3.03840931016824E-13   4.44995155470766E-16  -5.53563049655861E-18  -3.59030800771059E-17
     -4.00895488399405E-18  -1.96762286785310E-17  -1.37337505555986E-17  -3.59030800812758E-17  -6.07681862033647E-13
      5.55793087592973E-17
      1.00000000000000E+04
      8.00000000000000E-01   0.00000000000000E+00  -1.16771747599451E+01   7.59602327542059E-13   4.19996232294105E-16
     -1.21883358140557E-16  -4.01280583891499E-16  -1.08970231274876E-17  -1.87156484026350E-17  -1.77811740071231E-16
     -4.01280583770155E-16  -1.36728418957571E-12   4.38037821859966E-16  -3.26516964642900E-17  -3.67572380893102E-17
      4.51099494857567E-17  -1.87156485239795E-17  -8.86647351594793E-17  -3.67572379679657E-17  -3.03840931016824E-13
      5.54728864916209E-17
      1.00000000000000E+04
      8.00000000000000E-01   0.00000000000000E+00  -1.21771747599451E+01  -1.51920465508412E-13   4.11253990382049E-16
     -1.11870173385428E-16  -3.93476786433118E-16  -9.72516695323143E-18  -1.77772039489950E-17  -3.17880957589076E-16
     -3.93476785942018E-16  -3.03840931016824E-13   4.31072464385646E-16  -1.20364926318226E-16  -3.75956784428984E-17
      1.96238160129848E-16  -1.77772044400944E-17  -3.26340671352281E-16  -3.75956779517990E-17  -4.55761396525235E-13
      5.53728823911210E-17
      1.00000000000000E+04
      8.00000000000000E-01   0.00000000000000E+00  -1.26771747599451E+01   3.03840931016824E-13   4.02526290633630E-16
     -1.02449791511664E-16  -3.85665229308243E-16  -8.65854156695601E-18  -1.68610613254356E-17  -7.70602618672863E-16
     -3.85665227723727E-16  -1.06344325855888E-12   4.24083468065921E-16  -4.04534801671530E-16  -3.84182403403489E-17
      6.59477516184202E-16  -1.68610629099513E-17  -1.07268602974465E-15  -3.84182387558333E-17  -6.07681862033647E-13
      5.52793016659933E-17
      1.00000000000000E+04
      8.00000000000000E-01   0.00000000000000E+00  -1.31771747599451E+01  -3.03840931016824E-13   3.93812164721555E-16
     -9.36675174199558E-17  -3.77843417151481E-16  -7.67377216286657E-18  -1.59687475701221E-17  -2.15574373195086E-15
     -3.77843412379535E-16   0.00000000000000E+00   4.17066930013528E-16  -1.31082403864568E-15  -3.92235176329811E-17
      2.05445307692736E-15  -1.59687523420676E-17  -3.37293877010901E-15  -3.92235128610356E-17  -6.07681862033647E-13
      5.51922652029143E-17
      1.00000000000000E+04
      8.00000000000000E-01   0.00000000000000E+00  -1.36771747599451E+01   4.55761396525235E-13   3.85130608012477E-16
     -8.53735155262141E-17  -3.70027145792146E-16  -6.74697390958688E-18  -1.51034622203823E-17  -6.25291471210722E-15
     -3.70027131920313E-16  -3.03840931016824E-13   4.10035687264273E-16  -4.13894955158365E-15  -4.00085553436666E-17
      6.16091165461344E-15  -1.51034760922164E-17  -1.03065900110069E-14  -4.00085414718324E-17   0.00000000000000E+00
      5.51120175632052E-17
      1.00000000000000E+04
      8.00000000000000E-01   0.00000000000000E+00  -1.41771747599451E+01   1.51920465508412E-13   3.76526599973434E-16
     -7.75505477555550E-17  -3.62256282477823E-16  -5.85426010358397E-18  -1.42703174956593E-17  -1.80336207919213E-14
     -3.62256243237902E-16  -7.59602327542059E-13   4.03024847069642E-16  -1.27483357412989E-14  -4.07686038301703E-17
      1.79502575275069E-14  -1.42703567355823E-17  -3.07044600063883E-14  -4.07685645902475E-17   4.55761396525235E-13
      5.50389213254310E-17
      1.00000000000000E+04
      8.00000000000000E-01   0.00000000000000E+00  -1.46771747599451E+01   0.00000000000000E+00   3.68075420280487E-16
     -7.04414489155184E-17  -3.54599087526973E-16  -4.97324644532347E-18  -1.34763327535526E-17  -5.09858676401170E-14
     -3.54598979349032E-16  -4.55761396525235E-13   3.96096069069410E-16  -3.82594342134206E-14  -4.14970897194979E-17
      5.09104487047523E-14  -1.34764409314937E-17  -8.91748490183482E-14  -4.14969815415568E-17  -1.51920465508412E-13
      5.49734224728171E-17
      1.00000000000000E+04
      8.00000000000000E-01   0.00000000000000E+00  -1.51771747599451E+01  -3.03840931016824E-13   3.59882137199306E-16
     -6.41034410291751E-17  -3.47152163659812E-16  -4.07022951342129E-18  -1.27299735395257E-17  -1.40616908019854E-13
     -3.47151873070412E-16   3.03840931016824E-12   3.89337867802984E-16  -1.11690556022123E-13  -4.21859947315566E-17
      1.40548776094283E-13  -1.27302641289262E-17  -2.52243389478735E-13  -4.21857041421560E-17  -1.51920465508412E-13
      5.49159682710742E-17
      1.00000000000000E+04
      8.00000000000000E-01   0.00000000000000E+00  -1.56771747599451E+01   7.59602327542059E-13   3.52073201609510E-16
     -5.87370287776599E-17  -3.40033103505789E-16  -3.07235724341407E-18  -1.20400981037742E-17  -3.77536848256946E-13
     -3.40032343363853E-16   4.55761396525235E-12   3.82859103855303E-16  -3.16584889822913E-13  -4.28267604897251E-17
      3.77475028682243E-13  -1.20408582457103E-17  -6.94062987890691E-13  -4.28260003477891E-17   1.51920465508412E-13
      5.48668585933259E-17
      1.00000000000000E+04
      8.00000000000000E-01   0.00000000000000E+00  -1.61771747599451E+01  -1.51920465508412E-13   3.44779373934986E-16
     -5.47676840266051E-17  -3.33364969418614E-16  -1.81522009178987E-18  -1.14144045163757E-17  -9.85611552690388E-13
     -3.33363034429965E-16   1.67112512059253E-12   3.76774637743410E-16  -8.69628335252295E-13  -4.34116033122680E-17
      9.85555065139402E-13  -1.14163395050258E-17  -1.85518522284503E-12  -4.34096683236180E-17   9.11522793050471E-13
      5.48260078280902E-17
      1.00000000000000E+04
      8.00000000000000E-01   0.00000000000000E+00  -1.66771747599451E+01   9.11522793050471E-13   3.38113559359283E-16
     -5.27698199031066E-17  -3.27255776109309E-16   7.84285645755970E-20  -1.08577832500147E-17  -2.49934359474332E-12
     -3.27250987099708E-16   7.59602327542059E-12   3.71185770010339E-16  -2.31047102009754E-12  -4.39347829089284E-17
      2.49929090261853E-12  -1.08625722596154E-17  -4.80976182966315E-12  -4.39299938993277E-17   1.97496605160935E-12
      5.47925661581640E-17
      1.00000000000000E+04
      8.00000000000000E-01   0.00000000000000E+00  -1.71771747599451E+01  -1.51920465508412E-13   3.32150964955593E-16
     -5.45585561185047E-17  -3.21779819156174E-16   3.43407253853474E-18  -1.03711457994312E-17  -6.14847166267612E-12
     -3.21768309880894E-16   1.16978758441477E-11   3.66161427024466E-16  -5.92538034096381E-12  -4.43931171422074E-17
      6.14842064035645E-12  -1.03826550747112E-17  -1.20737975611779E-11  -4.43816078669274E-17   6.07681862033647E-12
      5.47642629417782E-17
      1.00000000000000E+04
      8.00000000000000E-01   0.00000000000000E+00  -1.76771747599451E+01   7.59602327542059E-13   3.26918931396911E-16
     -6.32024740648511E-17  -3.16967811942892E-16   9.95238767047977E-18  -9.95111945407276E-18  -1.46478596455517E-11
     -3.16941002659880E-16   3.03840931016824E-11   3.61726052614491E-16  -1.46368892095005E-11  -4.47850499531349E-17
      1.46478063198788E-11  -9.97792873708553E-18  -2.92846855702276E-11  -4.47582406701221E-17   1.50401260853328E-11
      5.47361694071697E-17
      1.00000000000000E+04
      8.00000000000000E-01   0.00000000000000E+00  -1.81771747599451E+01   1.36728418957571E-12   3.22399235686180E-16
     -8.49109863618732E-17  -3.12808688664710E-16   2.27566164269956E-17  -9.59054702149888E-18  -3.37144497950168E-11
     -3.12748317702794E-16   7.07949369269199E-11   3.57856135514169E-16  -3.47414663345728E-11  -4.51078178105864E-17
      3.37143876932530E-11  -9.65091798341522E-18  -6.84558312721996E-11  -4.50474468486701E-17   3.46378661359179E-11
      5.46983648319720E-17
      1.00000000000000E+04
      8.00000000000000E-01   0.00000000000000E+00  -1.86771747599451E+01   1.06344325855888E-12   3.18539961334434E-16
     -1.28126859464234E-16  -3.09260622543158E-16   4.64715618696421E-17  -9.27933879133254E-18  -7.47343038520604E-11
     -3.09129663249738E-16   1.53743511094513E-10   3.54482205869483E-16  -7.90039596964958E-11  -4.53525426180868E-17
      7.47342222234851E-11  -9.41029808475385E-18  -1.53738135448361E-10  -4.52215833246655E-17   7.89986420643741E-11
      5.46318814087781E-17
      1.00000000000000E+04
      8.00000000000000E-01   0.00000000000000E+00  -1.91771747599451E+01  -1.51920465508412E-13   3.15271085493343E-16
     -2.00336752748858E-16  -3.06265911894962E-16   8.49388808139501E-17  -9.00517359840546E-18  -1.58889070796568E-10
     -3.05993544133547E-16   3.31034694342829E-10   3.51491067120610E-16  -1.71491135888577E-10  -4.54975229863059E-17
      1.58888955458389E-10  -9.27754135982161E-18  -3.30380006422421E-10  -4.52251552248896E-17   1.71062444162472E-10
      5.45026965844798E-17
      1.00000000000000E+04
      8.00000000000000E-01   0.00000000000000E+00  -1.96771747599451E+01   3.03840931016824E-13   3.12518560241357E-16
     -2.95350435588860E-16  -3.03764690245148E-16   1.34722731921924E-16  -8.75386999625568E-18  -3.22295141310488E-10
     -3.03224914359741E-16   6.80755605943193E-10   3.48726267257645E-16  -3.53630465568312E-10  -4.55013528962421E-17
      3.22294980740060E-10  -9.29364588166311E-18  -6.75925311592427E-10  -4.49615770108345E-17   3.53974684634599E-10
      5.42552228920836E-17
      1.00000000000000E+04
      8.00000000000000E-01   0.00000000000000E+00  -2.01771747599451E+01  -1.51920465508412E-13   3.10213931267440E-16
     -3.84041199145029E-16  -3.01704124177847E-16   1.80085206553011E-16  -8.50980708961352E-18  -6.19766207124558E-10
     -3.00692521028921E-16   1.30894673082048E-09   3.45993220234637E-16  -6.88649784716391E-10  -4.53006992053296E-17
      6.19766003222324E-10  -9.52141023853997E-18  -1.30841560787027E-09  -4.42890960564025E-17   6.88807390615139E-10
      5.38105062936080E-17
      1.00000000000000E+04
      8.00000000000000E-01   0.00000000000000E+00  -2.06771747599451E+01  -1.21536372406729E-12   3.08298472443505E-16
     -4.33121102809750E-16  -3.00041185291393E-16   2.03133644385602E-16  -8.25728715213262E-18  -1.12197861070386E-09
     -2.98263340642343E-16   2.37953025125825E-09   3.43084829504717E-16  -1.25813497322324E-09  -4.48214888630002E-17
      1.12197838066577E-09  -1.00351318011834E-17  -2.38011315078807E-09  -4.30436442139478E-17   1.25820529534067E-09
      5.30787760149222E-17
      1.00000000000000E+04
      8.00000000000000E-01   0.00000000000000E+00  -2.11771747599451E+01  -6.07681862033647E-13   3.06722137249927E-16
     -4.37162501724457E-16  -2.98738547359094E-16   2.01134983086525E-16  -7.98358989085957E-18  -1.90021735125110E-09
     -2.95830630538069E-16   4.04533815555799E-09   3.39840784734405E-16  -2.14370805866621E-09  -4.40101541952777E-17
      1.90021711529488E-09  -1.08915067118835E-17  -4.04392497282457E-09  -4.11022373742532E-17   2.14374968878920E-09
      5.19937440857956E-17
      1.00000000000000E+04
      8.00000000000000E-01   0.00000000000000E+00  -2.16771747599451E+01  -3.03840931016824E-13   3.05439224055295E-16
     -4.12726677743307E-16  -2.97756219467670E-16   1.83995028781251E-16  -7.68300458766782E-18  -2.99994084745864E-09
     -2.93348383832957E-16   6.39539583650761E-09   3.36223097250056E-16  -3.39538109240206E-09  -4.28747134165217E-17
      2.99994061868873E-09  -1.20908402223797E-17  -6.39532152708942E-09  -3.84668777818109E-17   3.39572624504402E-09
      5.05577180035336E-17
      1.00000000000000E+04
      8.00000000000000E-01   0.00000000000000E+00  -2.21771747599451E+01  -6.07681862033647E-13   3.04404354518697E-16
     -3.75665805177783E-16  -2.97045200008201E-16   1.61029219683202E-16  -7.35915451055205E-18  -4.41770481627075E-09
     -2.90846728843978E-16   9.42165150943517E-09   3.32350470773676E-16  -5.00425411891609E-09  -4.15037419284589E-17
      4.41770460169127E-09  -1.35576256747749E-17  -9.42195855957912E-09  -3.53052707642376E-17   5.00426013384708E-09
      4.88628964389603E-17
      1.00000000000000E+04
      8.00000000000000E-01   0.00000000000000E+00  -2.26771747599451E+01  -1.51920465508412E-13   3.03571940996153E-16
     -3.36521323993643E-16  -2.96548703706763E-16   1.38029131203706E-16  -7.02323728944108E-18  -6.09958011696778E-09
     -2.88408949493923E-16   1.30031764837960E-08   3.28448277377349E-16  -6.90145207329176E-09  -4.00393278829004E-17
      6.09957991849893E-09  -1.51629915022771E-17  -1.30010318537392E-08  -3.18995736700703E-17   6.90205058897816E-09
      4.70625651718092E-17
      1.00000000000000E+04
      8.00000000000000E-01   0.00000000000000E+00  -2.31771747599451E+01   3.03840931016824E-13   3.02899021704327E-16
     -3.02898730397745E-16  -2.96209898140925E-16   1.18519089520832E-16  -6.68912356341331E-18  -7.96261615929297E-09
     -2.86125158097537E-16   1.69464240865323E-08   3.24747369421882E-16  -8.98484548671827E-09  -3.86222113241624E-17
      7.96261597484755E-09  -1.67738636068019E-17  -1.69474613430550E-08  -2.85374712807737E-17   8.98472825063298E-09
      4.53113348873774E-17
      1.00000000000000E+04
      8.00000000000000E-01   0.00000000000000E+00  -2.36771747599451E+01  -6.07681862033647E-13   3.02348619268812E-16
     -2.77616893876154E-16  -2.95979928797920E-16   1.03559929465594E-16  -6.36869047095072E-18  -9.92254388625617E-09
     -2.84056536350174E-16   2.10748627367234E-08   3.21406745631458E-16  -1.11528113249517E-08  -3.73502092817288E-17
      9.92254371212849E-09  -1.82920829187002E-17  -2.10753549335317E-08  -2.54268168339835E-17   1.11524813729725E-08
      4.37188997515487E-17
      1.00000000000000E+04
      8.00000000000000E-01   0.00000000000000E+00  -2.41771747599451E+01   7.59602327542059E-13   3.01891349708919E-16
     -2.59439948809150E-16  -2.95821724895062E-16   9.23248883043601E-17  -6.06962481391174E-18  -1.19117534727844E-08
     -2.82225951847641E-16   2.52383950144469E-08   3.18494742578737E-16  -1.33256372453761E-08  -3.62687907309238E-17
      1.19117533056913E-08  -1.96653978613360E-17  -2.52373904587522E-08  -2.26730176835026E-17   1.33257036320703E-08
      4.23384155444731E-17
      1.00000000000000E+04
      8.00000000000000E-01   0.00000000000000E+00  -2.46771747599451E+01  -3.03840931016824E-13   3.01505096583081E-16
     -2.45064221123723E-16  -2.95709590811675E-16   8.34357089299862E-17  -5.79550577145030E-18  -1.38843432375616E-08
     -2.80626786036588E-16   2.93312842757091E-08   3.16010289842599E-16  -1.54509698643252E-08  -3.53835038050938E-17
      1.38843430759472E-08  -2.08783105465447E-17  -2.93353128568649E-08  -2.03006990299963E-17   1.54507671036020E-08
      4.11790095760992E-17
      1.00000000000000E+04
      8.00000000000000E-01   0.00000000000000E+00  -2.51771747599451E+01   7.59602327542059E-13   3.01173674872838E-16
     -2.32094308126135E-16  -2.95626746498223E-16   7.58242671075906E-17  -5.54692837464085E-18  -1.58132471408459E-08
     -2.79236284140125E-16   3.33128158357535E-08   3.13913731243305E-16  -1.74996929392045E-08  -3.46774471036592E-17
      1.58132469845573E-08  -2.19373907327418E-17  -3.33129398479519E-08  -1.82869847455558E-17   1.74995665014484E-08
      4.02243754777111E-17
      1.00000000000000E+04
      8.00000000000000E-01   0.00000000000000E+00  -2.56771747599451E+01   9.11522793050471E-13   3.00885327386187E-16
     -2.19408698983638E-16  -2.95562614924148E-16   6.89260099382438E-17  -5.32271246209402E-18  -1.76848769287738E-08
     -2.78025957224105E-16   3.71451614986687E-08   3.12150698338728E-16  -1.94589828743054E-08  -3.41247411125383E-17
      1.76848767781943E-08  -2.28593701621400E-17  -3.71438595835886E-08  -1.65880834124897E-17   1.94587328246449E-08
      3.94474535737595E-17
      1.00000000000000E+04
      8.00000000000000E-01   0.00000000000000E+00  -2.61771747599451E+01   3.03840931016824E-13   3.00631456912837E-16
     -2.06736331490175E-16  -2.95510645675344E-16   6.25451607379575E-17  -5.12081123755269E-18  -1.94942037501799E-08
     -2.76967609088463E-16   4.08225482867653E-08   3.10665992062736E-16  -2.13260983357136E-08  -3.36983829735757E-17
      1.94942036060113E-08  -2.36638478244429E-17  -4.08203018792001E-08  -1.51553463866873E-17   2.13258353457433E-08
      3.88191942096429E-17
      1.00000000000000E+04