DF-ISE text

Info {
  version   = 1.0
  type      = xyplot
  datasets  = [
    "frequency"
    "v(Ntop)" "v(Ptop)" "v(Pbot)" "a(Ntop,Ntop)" "c(Ntop,Ntop)"
    "a(Ntop,Ptop)" "c(Ntop,Ptop)" "a(Ntop,Pbot)" "c(Ntop,Pbot)" "a(Ptop,Ntop)"
    "c(Ptop,Ntop)" "a(Ptop,Ptop)" "c(Ptop,Ptop)" "a(Ptop,Pbot)" "c(Ptop,Pbot)"
    "a(Pbot,Ntop)" "c(Pbot,Ntop)" "a(Pbot,Ptop)" "c(Pbot,Ptop)" "a(Pbot,Pbot)"
    "c(Pbot,Pbot)" ]
  functions = [
    Frequency
    Voltage Voltage Voltage Admittance Capacitance
    Admittance Capacitance Admittance Capacitance Admittance
    Capacitance Admittance Capacitance Admittance Capacitance
    Admittance Capacitance Admittance Capacitance Admittance
    Capacitance ]
}

Data {
      1.00000000000000E+04
      8.00000000000000E-01   0.00000000000000E+00  -5.00000000000000E-02   7.59602327542059E-13   9.40786072921794E-16
     -1.91659957941533E-15  -8.35598353031647E-16  -1.25926423018151E-15  -1.05187719890252E-16  -1.91789650887869E-15
     -8.35598353192631E-16   3.03840931016824E-13   8.35609604338811E-16   3.69047290049294E-16  -1.12511458659227E-20
     -1.25794996935841E-15  -1.05187719729266E-16   3.67729512511146E-16  -1.12513068482270E-20   9.11522793050471E-13
      1.05198971035800E-16
      1.00000000000000E+04
      8.00000000000000E-01   0.00000000000000E+00  -1.45555555555556E-01   7.59602327542059E-13   9.36644740802920E-16
     -1.90240226795753E-15  -8.35586373052698E-16  -1.15822378850739E-15  -1.01058367750383E-16  -1.90356273552129E-15
     -8.35586373237067E-16   1.82304558610094E-12   8.35602084920654E-16   3.54627394885058E-16  -1.57116848924552E-20
     -1.15701431980671E-15  -1.01058367566030E-16   3.53426237700892E-16  -1.57118692544602E-20  -1.51920465508412E-13
      1.01074079435323E-16
      1.00000000000000E+04
      8.00000000000000E-01   0.00000000000000E+00  -3.28172839506173E-01   1.51920465508412E-13   9.29921522693184E-16
     -1.87977460423468E-15  -8.35549915712835E-16  -1.00373088873689E-15  -9.43716069804963E-17  -1.88045926433112E-15
     -8.35549915935720E-16  -6.07681862033647E-13   8.35578759564126E-16   3.31320229575442E-16  -2.88436282661517E-20
     -1.00281082691731E-15  -9.43716067576472E-17   3.30413207169912E-16  -2.88438511280434E-20  -3.03840931016824E-13
      9.44004506081100E-17
      1.00000000000000E+04
      8.00000000000000E-01   0.00000000000000E+00  -6.77174759945130E-01   3.03840931016824E-13   9.19996179462209E-16
     -1.84875392281990E-15  -8.35387614399609E-16  -8.00720566578920E-16  -8.46085650627648E-17  -1.84900657487302E-15
     -8.35387614681025E-16   1.97496605160935E-12   8.35471490968025E-16   2.97481025584049E-16  -8.38762871329081E-20
     -8.00811137665142E-16  -8.46085647813417E-17   2.97568014384008E-16  -8.38765685530827E-20  -1.51920465508412E-13
      8.46924413500497E-17
      1.00000000000000E+04
      8.00000000000000E-01   0.00000000000000E+00  -1.17717475994513E+00  -6.07681862033647E-13   9.09298499911878E-16
     -1.82668796072335E-15  -8.34608992954004E-16  -6.19603860060772E-16  -7.46895069580622E-17  -1.82318795167110E-15
     -8.34608993312890E-16  -3.03840931016824E-13   8.34932517983599E-16   2.63499340377346E-16  -3.23524671905923E-19
     -6.23459911532585E-16  -7.46895065991854E-17   2.67358555324485E-16  -3.23525030784721E-19  -3.03840931016824E-13
      7.50130316298829E-17
      1.00000000000000E+04
      8.00000000000000E-01   0.00000000000000E+00  -1.67717475994513E+00  -9.11522793050471E-13   8.99693588700097E-16
     -1.82586452492437E-15  -8.32055964881837E-16  -5.00515139998092E-16  -6.76376238183675E-17  -1.81179365185327E-15
     -8.32055965358873E-16  -1.21536372406729E-12   8.33059405616773E-16   2.39146892621970E-16  -1.00344025790731E-18
     -5.14498196000282E-16  -6.76376233413372E-17   2.53129094127066E-16  -1.00344073493805E-18  -3.03840931016824E-13
      6.86410640765807E-17
      1.00000000000000E+04
      8.00000000000000E-01   0.00000000000000E+00  -2.17717475994513E+00   9.11522793050471E-13   8.87387338443980E-16
     -1.82033308737923E-15  -8.25266403486186E-16  -4.09479944861624E-16  -6.21209349578944E-17  -1.78598979197052E-15
     -8.25266404161460E-16  -7.59602327542059E-13   8.27771371337076E-16   2.17247288093294E-16  -2.50496717588431E-18
     -4.43960012146043E-16  -6.21209342826211E-17   2.51720620790471E-16  -2.50496785115739E-18   4.55761396525235E-13
      6.46259021331773E-17
      1.00000000000000E+04
      8.00000000000000E-01   0.00000000000000E+00  -2.67717475994513E+00   3.03840931016824E-13   8.67772492898695E-16
     -1.75089736915977E-15  -8.10782172219156E-16  -3.36312402424685E-16  -5.69903206797736E-17  -1.68353032562860E-15
     -8.10782173181753E-16  -7.59602327542059E-13   8.15893498208340E-16   1.89677860826006E-16  -5.11132502839640E-18
     -4.04070035010033E-16  -5.69903197171813E-17   2.57445621890730E-16  -5.11132599098900E-18  -4.55761396525235E-13
      6.21016457071454E-17
      1.00000000000000E+04
      8.00000000000000E-01   0.00000000000000E+00  -3.17717475994513E+00   1.51920465508412E-13   8.38811907837627E-16
     -1.56872889987976E-15  -7.86984814717340E-16  -2.66675904956077E-16  -5.18270931204578E-17  -1.46118252497425E-15
     -7.86984815957641E-16  -1.36728418957571E-12   7.95652716131908E-16   1.53872743139809E-16  -8.66790017436987E-18
     -3.74092023937829E-16  -5.18270918801598E-17   2.61289152100776E-16  -8.66790141466810E-18  -1.51920465508412E-13
      6.04949932944784E-17
      1.00000000000000E+04
      8.00000000000000E-01   0.00000000000000E+00  -3.67717475994513E+00   0.00000000000000E+00   8.04974087974183E-16
     -1.31537771039481E-15  -7.58007116010539E-16  -2.00873860404128E-16  -4.69669719637912E-17  -1.18040110933892E-15
     -7.58007117371656E-16  -3.49417070669347E-12   7.70476708934632E-16   1.17435496267513E-16  -1.24695915637904E-17
     -3.36010448548943E-16  -4.69669706026818E-17   2.52568593408630E-16  -1.24695929249005E-17   0.00000000000000E+00
      5.94365635276958E-17
      1.00000000000000E+04
      8.00000000000000E-01   0.00000000000000E+00  -4.17717475994513E+00   0.00000000000000E+00   7.73918551243861E-16
     -1.10107177699107E-15  -7.30946262639410E-16  -1.53733711133525E-16  -4.29722886045380E-17  -9.55568201259522E-16
     -7.30946263951560E-16  -3.03840931016824E-13   7.46699978374557E-16   9.08126147750067E-17  -1.57537144229317E-17
     -2.99255368158332E-16  -4.29722872923938E-17   2.36333758162866E-16  -1.57537157350763E-17   1.51920465508412E-13
      5.87260030274769E-17
      1.00000000000000E+04
      8.00000000000000E-01   0.00000000000000E+00  -4.67717475994513E+00  -3.03840931016824E-13   7.48728089952030E-16
     -9.47758019561941E-16  -7.08818805232527E-16  -1.22260140628962E-16  -3.99092847196242E-17  -8.12268512811834E-16
     -7.08818806350744E-16  -3.03840931016824E-13   7.27142956531205E-16   7.44630982929979E-17  -1.83241501804754E-17
     -2.57790583320247E-16  -3.99092836014065E-17   2.09988123681509E-16  -1.83241512986930E-17  -1.51920465508412E-13
      5.82334349001658E-17
      1.00000000000000E+04
      8.00000000000000E-01   0.00000000000000E+00  -5.17717475994513E+00  -6.07681862033647E-13   7.28301479933637E-16
     -8.17258143277157E-16  -6.90800449039920E-16  -9.95457909968029E-17  -3.75010308938325E-17  -7.07688996698119E-16
     -6.90800449885077E-16   0.00000000000000E+00   7.11166249044657E-16   6.30790884770028E-17  -2.03657991598612E-17
     -2.09261809366430E-16  -3.75010300486767E-17   1.72801401783350E-16  -2.03658000050171E-17   3.03840931016824E-13
      5.78668300526326E-17
      1.00000000000000E+04
      8.00000000000000E-01   0.00000000000000E+00  -5.67717475994513E+00  -3.03840931016824E-13   7.10911238323218E-16
     -6.96064758549820E-16  -6.75421554927964E-16  -8.18174178532212E-17  -3.54896833953599E-17  -6.16484099244065E-16
     -6.75421555515154E-16   1.51920465508412E-13   6.97503587200303E-16   5.37022179363998E-17  -2.20820316853985E-17
     -1.61556314715667E-16  -3.54896828081711E-17   1.33427653094506E-16  -2.20820322725877E-17  -1.51920465508412E-13
      5.75717150807056E-17
      1.00000000000000E+04
      8.00000000000000E-01   0.00000000000000E+00  -6.17717475994513E+00   3.03840931016824E-13   6.95391414789834E-16
     -5.98304836880339E-16  -6.61673225511692E-16  -6.86856315550462E-17  -3.37181892782995E-17  -5.41599149943913E-16
     -6.61673225922770E-16   3.03840931016824E-13   6.85274246904136E-16   4.62176214050730E-17  -2.36010209815950E-17
     -1.25430780920795E-16  -3.37181888672183E-17   1.02951858187283E-16  -2.36010213926759E-17  -6.07681862033647E-13
      5.73192102599894E-17
      1.00000000000000E+04
      8.00000000000000E-01   0.00000000000000E+00  -6.67717475994513E+00   1.51920465508412E-13   6.81074480253636E-16
     -5.24489204515940E-16  -6.48974801433629E-16  -5.91183292560619E-17  -3.20996788201492E-17  -4.82442927340905E-16
     -6.48974801740545E-16  -2.88648884465982E-12   6.73969268647782E-16   4.03570930112716E-17  -2.49944669072846E-17
     -1.01280752715936E-16  -3.20996785132347E-17   8.25183035871613E-17  -2.49944672141990E-17  -4.55761396525235E-13
      5.70941457265730E-17
      1.00000000000000E+04
      8.00000000000000E-01   0.00000000000000E+00  -7.17717475994513E+00  -4.55761396525235E-13   6.67581185473208E-16
     -4.67192590119525E-16  -6.36995670463379E-16  -5.17525108840007E-17  -3.05855150099498E-17  -4.34416099555740E-16
     -6.36995670707858E-16   7.59602327542059E-13   6.63298391825815E-16   3.55794179302839E-17  -2.63027211181624E-17
     -8.49321038222319E-17  -3.05855147654704E-17   6.87664795615643E-17  -2.63027213626417E-17  -4.55761396525235E-13
      5.68882361279679E-17
      1.00000000000000E+04
      8.00000000000000E-01   0.00000000000000E+00  -7.67717475994513E+00   1.51920465508412E-13   6.54686118997892E-16
     -4.20367911468171E-16  -6.25538965926698E-16  -4.57019421086571E-17  -2.91471530712782E-17  -3.93218918031914E-16
     -6.25538966131063E-16  -3.64609117220188E-12   6.53088524957726E-16   3.15033958423157E-17  -2.75495588271230E-17
     -7.31791036308109E-17  -2.91471528669176E-17   5.89959414392310E-17  -2.75495590314837E-17   3.03840931016824E-13
      5.66967118981758E-17
      1.00000000000000E+04
      8.00000000000000E-01   0.00000000000000E+00  -8.17717475994513E+00  -3.03840931016824E-13   6.42246746103457E-16
     -3.80922019841002E-16  -6.14479806613489E-16  -4.05151218675441E-17  -2.77669394901091E-17  -3.57487034109388E-16
     -6.14479806790133E-16  -1.06344325855888E-12   6.43229557516056E-16   2.79141853040293E-17  -2.87497507260666E-17
     -6.42625811991191E-17  -2.77669393134608E-17   5.16471879270382E-17  -2.87497509027147E-17   1.51920465508412E-13
      5.65166902158464E-17
      1.00000000000000E+04
      8.00000000000000E-01   0.00000000000000E+00  -8.67717475994513E+00  -1.51920465508412E-13   6.30166353177250E-16
     -3.46464699703724E-16  -6.03732943052433E-16  -3.59844021607103E-17  -2.64334101249328E-17  -3.25132792721292E-16
     -6.03732943208753E-16   1.51920465508412E-13   6.33645894199393E-16   2.46884329424067E-17  -2.99129509904500E-17
     -5.72117393584423E-17  -2.64334099686125E-17   4.59030258202632E-17  -2.99129511467703E-17  -1.51920465508412E-13
      5.63463611144082E-17
      1.00000000000000E+04
      8.00000000000000E-01   0.00000000000000E+00  -9.17717475994513E+00  -6.07681862033647E-13   6.18373455026607E-16
     -3.15274643825732E-16  -5.93234727540075E-16  -3.20099231061999E-17  -2.51387274866894E-17  -2.96264448879567E-16
     -5.93234727680706E-16  -1.06344325855888E-12   6.24280552092501E-16   2.17418714804233E-17  -3.10458244124403E-17
     -5.15122133670902E-17  -2.51387273460576E-17   4.12454642090446E-17  -3.10458245530721E-17  -1.51920465508412E-13
      5.61845518995172E-17
      1.00000000000000E+04
      8.00000000000000E-01   0.00000000000000E+00  -9.67717475994513E+00  -9.11522793050471E-13   6.06809149731396E-16
     -2.87807551367731E-16  -5.82932004388268E-16  -2.85149371255574E-17  -2.38771453431505E-17  -2.69768964286094E-16
     -5.82932004515937E-16  -9.11522793050471E-13   6.15085331584746E-16   1.89853576870698E-17  -3.21533270687052E-17
     -4.67251538463794E-17  -2.38771452154834E-17   3.72002991593701E-17  -3.21533271963722E-17   1.51920465508412E-13
      5.60304724117528E-17
      1.00000000000000E+04
      8.00000000000000E-01   0.00000000000000E+00  -1.01771747599451E+01  -7.59602327542059E-13   5.95418500357676E-16
     -2.62332664030637E-16  -5.72774492673042E-16  -2.53949632316802E-17  -2.26440076846867E-17  -2.45821915349368E-16
     -5.72774492788258E-16  -2.27880698262618E-12   6.06014041065997E-16   1.62295290808661E-17  -3.32395482780960E-17
     -4.21011513554250E-17  -2.26440075694739E-17   3.29400847471063E-17  -3.32395483933090E-17  -3.03840931016824E-13
      5.58835559626360E-17
      1.00000000000000E+04
      8.00000000000000E-01   0.00000000000000E+00  -1.06771747599451E+01   0.00000000000000E+00   5.84144214818502E-16
     -2.39129087426734E-16  -5.62709140027171E-16  -2.25990452469799E-17  -2.14350747913818E-17  -2.25434428660737E-16
     -5.62709140127110E-16  -1.21536372406729E-12   5.97017425104074E-16   1.29035978474654E-17  -3.43082849763875E-17
     -3.64458317423163E-17  -2.14350746914432E-17   2.67480286426254E-17  -3.43082850763262E-17   0.00000000000000E+00
      5.57433597672007E-17
      1.00000000000000E+04
      8.00000000000000E-01   0.00000000000000E+00  -1.11771747599451E+01  -1.51920465508412E-13   5.72921966332504E-16
     -2.17844916932367E-16  -5.52675870799207E-16  -2.01120299246307E-17  -2.02460955333607E-17  -2.11561119953988E-16
     -5.52675870872092E-16  -7.59602327542059E-13   5.88039283495026E-16   7.12384434744950E-18  -3.53634126223323E-17
     -2.63886346218047E-17  -2.02460954604740E-17   1.33952822776605E-17  -3.53634126952189E-17  -1.51920465508412E-13
      5.56095081549134E-17
      1.00000000000000E+04
      8.00000000000000E-01   0.00000000000000E+00  -1.16771747599451E+01  -1.51920465508412E-13   5.61677391153336E-16
     -1.97392807971937E-16  -5.42604778358605E-16  -1.78639884363279E-17  -1.90726127947940E-17  -2.14751492872272E-16
     -5.42604778364822E-16  -3.03840931016824E-13   5.79013835772539E-16  -7.43779795238594E-18  -3.64090574085192E-17
     -8.25387983709732E-19  -1.90726127885784E-17  -2.44882301278003E-17  -3.64090574147349E-17   1.51920465508412E-13
      5.54816702024092E-17
      1.00000000000000E+04
      8.00000000000000E-01   0.00000000000000E+00  -1.21771747599451E+01  -6.07681862033647E-13   5.50325616569878E-16
     -1.78622437400280E-16  -5.32415559869283E-16  -1.57980352172270E-17  -1.79100567006882E-17  -2.68914424416763E-16
     -5.32415559686441E-16  -3.03840931016824E-13   5.69865073213789E-16  -5.20276173548063E-17  -3.74495135280143E-17
      7.44322809435218E-17  -1.79100568835315E-17  -1.42246145585512E-16  -3.74495133451710E-17   0.00000000000000E+00
      5.53595702286118E-17
      1.00000000000000E+04
      8.00000000000000E-01   0.00000000000000E+00  -1.26771747599451E+01  -1.06344325855888E-12   5.38775497769646E-16
     -1.60615895125507E-16  -5.22021219852359E-16  -1.38749234253606E-17  -1.67542779174024E-17  -4.77354230360225E-16
     -5.22021219115537E-16  -1.67112512059253E-12   5.60509978817819E-16  -1.96590412686410E-16  -3.84887597020935E-17
      3.03008944522623E-16  -1.67542786542270E-17  -5.13450765913165E-16  -3.84887589652688E-17   1.51920465508412E-13
      5.52430376196969E-17
      1.00000000000000E+04
      8.00000000000000E-01   0.00000000000000E+00  -1.31771747599451E+01  -3.03840931016824E-13   5.26942779945003E-16
     -1.42851400384411E-16  -5.11339980833043E-16  -1.20637667513645E-17  -1.56027991120252E-17  -1.14686623554722E-15
     -5.11339978482894E-16   7.59602327542059E-13   5.50869289564500E-16  -6.66695539736822E-16  -3.95293110824909E-17
      9.91955128623074E-16  -1.56028014621749E-17  -1.67072886167202E-15  -3.95293087323412E-17   0.00000000000000E+00
      5.51321101951782E-17
      1.00000000000000E+04
      8.00000000000000E-01   0.00000000000000E+00  -1.36771747599451E+01  -7.59602327542059E-13   5.14778570347979E-16
     -1.25846525499480E-16  -5.00321429119175E-16  -1.03358839900511E-17  -1.44571412288970E-17  -3.16236376724399E-15
     -5.00321422163211E-16  -3.19032977567665E-12   5.40891485791612E-16  -2.17356756260547E-15  -4.05700636297190E-17
      3.02592720264421E-15  -1.44571481848627E-17  -5.20981969309359E-15  -4.05700566737535E-17   1.51920465508412E-13
      5.50272048573831E-17
      1.00000000000000E+04
      8.00000000000000E-01   0.00000000000000E+00  -1.41771747599451E+01  -1.06344325855888E-12   5.02318743956197E-16
     -1.09774697963052E-16  -4.88992389358281E-16  -8.67725439316758E-18  -1.33263545979691E-17  -8.99629628797385E-15
     -4.88992369583075E-16  -1.82304558610094E-12   5.30595355749066E-16  -6.90420384133179E-15  -4.16029861652818E-17
      8.87788934585799E-15  -1.33263743731751E-17  -1.57907751757958E-14  -4.16029663900758E-17   4.55761396525235E-13
      5.49293407635298E-17
      1.00000000000000E+04
      8.00000000000000E-01   0.00000000000000E+00  -1.46771747599451E+01   1.51920465508412E-13   4.89748644278956E-16
     -9.43078595697409E-17  -4.77517798022862E-16  -7.08686133241960E-18  -1.22308462561647E-17  -2.53581545490624E-14
     -4.77517743529004E-16  -6.07681862033647E-13   5.20127210476004E-16  -2.13981856000040E-14  -4.26094669472007E-17
      2.52569433162371E-14  -1.22309007500251E-17  -4.66622273316185E-14  -4.26094124533405E-17   3.03840931016824E-13
      5.48403132027363E-17
      1.00000000000000E+04
      8.00000000000000E-01   0.00000000000000E+00  -1.51771747599451E+01  -6.07681862033647E-13   4.77448287243204E-16
     -8.04236541918707E-17  -4.66244770922212E-16  -5.57894842019369E-18  -1.12035163210761E-17  -6.99594465107957E-14
     -4.66244624858394E-16   1.36728418957571E-12   5.09803688079303E-16  -6.46071148036174E-14  -4.35590632210241E-17
      6.98737793855380E-14  -1.12036623848948E-17  -1.34486482308668E-13  -4.35589171572054E-17  -4.55761396525235E-13
      5.47625795422212E-17
      1.00000000000000E+04
      8.00000000000000E-01   0.00000000000000E+00  -1.56771747599451E+01   6.07681862033647E-13   4.65953125811555E-16
     -6.83420611570666E-17  -4.55669234522497E-16  -4.14385323459108E-18  -1.02838912891652E-17  -1.88485836645815E-13
     -4.55668852579672E-16   3.79801163771029E-12   5.00083554290469E-16  -1.89561221052784E-13  -4.44147017101603E-17
      1.88413487517313E-13  -1.02842732319925E-17  -3.77978847064924E-13  -4.44143197673331E-17  -1.51920465508412E-13
      5.46985929994286E-17
      1.00000000000000E+04
      8.00000000000000E-01   0.00000000000000E+00  -1.61771747599451E+01   0.00000000000000E+00   4.55795079794859E-16
     -5.89058319951833E-17  -4.46290455046950E-16  -2.68784746038773E-18  -9.50462474798330E-18  -4.96372193364062E-13
     -4.46289477802515E-16   3.79801163771029E-12   4.91434523308765E-16  -5.39014734435666E-13  -4.51450455065891E-17
      4.96310590026800E-13  -9.50560199241829E-18  -1.03532803198460E-12  -4.51440682621542E-17   0.00000000000000E+00
      5.46496702545167E-17
      1.00000000000000E+04
      8.00000000000000E-01   0.00000000000000E+00  -1.66771747599451E+01  -6.07681862033647E-13   4.47302967243671E-16
     -5.25022706496246E-17  -4.38424760965231E-16  -9.35622358998550E-19  -8.87820627847566E-18  -1.27858010353403E-12
     -4.38422310570382E-16   4.86145489626918E-12   4.84159121281815E-16  -1.48143312268665E-12  -4.57368107106974E-17
      1.27852646784908E-12  -8.88065667332499E-18  -2.75996051165218E-12  -4.57343603158480E-17   1.21536372406729E-12
      5.46150169887451E-17
      1.00000000000000E+04
      8.00000000000000E-01   0.00000000000000E+00  -1.71771747599451E+01   6.07681862033647E-13   4.40510263348900E-16
     -5.01303106428847E-17  -4.32116163269209E-16   1.74875914079990E-18  -8.39410007975677E-18  -3.21751101219875E-12
     -4.32110148083061E-16   1.16978758441477E-11   4.78307456984925E-16  -3.92588610171542E-12  -4.61973089021178E-17
      3.21746257813782E-12  -8.40011526590528E-18  -7.14334692787824E-12  -4.61912937159692E-17   3.49417070669347E-12
      5.45914089820056E-17
      1.00000000000000E+04
      8.00000000000000E-01   0.00000000000000E+00  -1.76771747599451E+01  -7.59602327542059E-13   4.35218936497063E-16
     -5.31066470589708E-17  -4.27192017612334E-16   6.69400090964505E-18  -8.02691888479054E-18  -7.88509597522352E-12
     -4.27177611890459E-16   1.88381377230431E-11   4.73723755738657E-16  -1.00088878008759E-11  -4.65461438476680E-17
      7.88504925437247E-12  -8.04132460666786E-18  -1.78939303627561E-11  -4.65317381257907E-17   1.01786711890636E-11
      5.45730627325237E-17
      1.00000000000000E+04
      8.00000000000000E-01   0.00000000000000E+00  -1.81771747599451E+01  -1.21536372406729E-12   4.31131980367296E-16
     -6.58102040477507E-17  -4.23384699280377E-16   1.64532410562062E-17  -7.74728108694546E-18  -1.87364001268517E-11
     -4.23351205505585E-16   4.07146847562544E-11   4.70154450583570E-16  -2.44922958991496E-11  -4.68032450781261E-17
      1.87363506338105E-11  -7.78077486173715E-18  -4.32286300879363E-11  -4.67697513033344E-17   2.44591949468543E-11
      5.45505261643254E-17
      1.00000000000000E+04
      8.00000000000000E-01   0.00000000000000E+00  -1.86771747599451E+01   4.55761396525235E-13   4.27957689215116E-16
     -9.50004641964567E-17  -4.20429070552314E-16   3.52167689389236E-17  -7.52861866284578E-18  -4.29559018474426E-11
     -4.20353884797174E-16   9.96598253735181E-11   4.67332821922639E-16  -5.73753713197556E-11  -4.69789371249534E-17
      4.29558419762892E-11  -7.60380441798438E-18  -1.00331178076903E-10  -4.69037513698148E-17   5.72740154966713E-11
      5.45075557877334E-17
      1.00000000000000E+04
      8.00000000000000E-01   0.00000000000000E+00  -1.91771747599451E+01  -1.51920465508412E-13   4.25457544570931E-16
     -1.48773408029773E-16  -4.18108465905301E-16   6.76899896384391E-17  -7.34907866567704E-18  -9.45208729431651E-11
     -4.17946489196497E-16   2.20892356849231E-10   4.65012961044834E-16  -1.28241625138724E-10  -4.70664718479647E-17
      9.45207920174177E-11  -7.51105537448205E-18  -2.22762349476031E-10  -4.69044951391597E-17   1.28068952423591E-10
      5.44155505135987E-17
      1.00000000000000E+04
      8.00000000000000E-01   0.00000000000000E+00  -1.96771747599451E+01   4.55761396525235E-13   4.23454712609720E-16
     -2.27552257382485E-16  -4.16264122602534E-16   1.13944952403128E-16  -7.19059000721685E-18  -1.98457867408357E-10
     -4.15931467835710E-16   4.71561124938110E-10   4.62967281159124E-16  -2.72294508728295E-10  -4.70358133227170E-17
      1.98457754175724E-10  -7.52324477404179E-18  -4.70752148953866E-10  -4.67031585558921E-17   2.72241474191074E-10
      5.42264033298649E-17
      1.00000000000000E+04
      8.00000000000000E-01   0.00000000000000E+00  -2.01771747599451E+01   3.03840931016824E-13   4.21825406001785E-16
     -3.11004812118955E-16  -4.14788175886051E-16   1.62217758999841E-16  -7.03723011579616E-18  -3.94970932849775E-10
     -4.14141970962538E-16   9.43578011272746E-10   4.60972468106627E-16  -5.46150366674673E-10  -4.68304971443401E-17
      3.94970784078441E-10  -7.68343503930926E-18  -9.41120988528211E-10  -4.61842922208276E-17   5.46609834899266E-10
      5.38677272594910E-17
      1.00000000000000E+04
      8.00000000000000E-01   0.00000000000000E+00  -2.06771747599451E+01  -6.07681862033647E-13   4.20485906273182E-16
     -3.66673310999665E-16  -4.13611454316793E-16   1.92972539872759E-16  -6.87445195648468E-18  -7.39716067152536E-10
     -4.12434363071625E-16   1.76668309339732E-09   4.58809213186078E-16  -1.02797929445794E-09  -4.63748501149600E-17
      7.39715893638033E-10  -8.05154320165402E-18  -1.76769499514664E-09  -4.51977588697907E-17   1.02774194916441E-09
      5.32493020710873E-17
      1.00000000000000E+04
      8.00000000000000E-01   0.00000000000000E+00  -2.11771747599451E+01   6.07681862033647E-13   4.19379863486642E-16
     -3.79502637707694E-16  -4.12689668866023E-16   1.97634648890361E-16  -6.69019462068647E-18  -1.29470958080019E-09
     -4.10695772466813E-16   3.09856981450957E-09   4.56296498594252E-16  -1.80405919202328E-09  -4.56007261280765E-17
      1.29470939882435E-09  -8.68409101989939E-18  -3.09876839322809E-09  -4.36068297288641E-17   1.80451128930892E-09
      5.22909207488123E-17
      1.00000000000000E+04
      8.00000000000000E-01   0.00000000000000E+00  -2.16771747599451E+01   1.51920465508412E-13   4.18467039649868E-16
     -3.62443943057802E-16  -4.11989299644484E-16   1.84384118710727E-16  -6.47774000541680E-18  -2.10788645111342E-09
     -4.08865999083735E-16   5.04558250046537E-09   4.53356675947746E-16  -2.93908814261823E-09  -4.44906768644522E-17
      2.10788627312408E-09  -9.60104056616489E-18  -5.04697423134730E-09  -4.13673763037071E-17   2.93890140526023E-09
      5.09684168696335E-17
      1.00000000000000E+04
      8.00000000000000E-01   0.00000000000000E+00  -2.21771747599451E+01   7.59602327542059E-13   4.17714624589113E-16
     -3.32277799754742E-16  -4.11476355643473E-16   1.63898250140471E-16  -6.23826894572241E-18  -3.19033135822843E-09
     -4.06954367461967E-16   7.63810524436642E-09   4.50063862632853E-16  -4.44368824549152E-09  -4.31094951709514E-17
      3.19033118982495E-09  -1.07602571272270E-17  -7.63401927141195E-09  -3.85875069894531E-17   4.44367361612105E-09
      4.93477641163423E-17
      1.00000000000000E+04
      8.00000000000000E-01   0.00000000000000E+00  -2.26771747599451E+01  -1.51920465508412E-13   4.17092638714462E-16
     -2.98173342254417E-16  -4.11112216539988E-16   1.41892991258238E-16  -5.98042217454060E-18  -4.50806899475330E-09
     -4.05027828423977E-16   1.07758705389772E-08   4.46618821796776E-16  -6.26368080485976E-09  -4.15909933727342E-17
      4.50806883846592E-09  -1.20648102905556E-17  -1.07717495014560E-08  -3.55066052567191E-17   6.26398463384284E-09
      4.75714155474501E-17
      1.00000000000000E+04
      8.00000000000000E-01   0.00000000000000E+00  -2.31771747599451E+01  -6.07681862033647E-13   4.16573423226437E-16
     -2.65595838523550E-16  -4.10856870046546E-16   1.21693008087912E-16  -5.71655317993137E-18  -5.99561518535034E-09
     -4.03172449678822E-16   1.42935889178244E-08   4.43257409087868E-16  -8.30104474184490E-09  -4.00849594103230E-17
      5.99561504146270E-09  -1.34009735476565E-17  -1.42966596616283E-08  -3.24005390425990E-17   8.30093423537962E-09
      4.58015125898090E-17
      1.00000000000000E+04
      8.00000000000000E-01   0.00000000000000E+00  -2.36771747599451E+01  -3.03840931016824E-13   4.16133070189580E-16
     -2.39162798369817E-16  -4.10674791624530E-16   1.05277033045598E-16  -5.45827856513006E-18  -7.58001885306179E-09
     -4.01456272767560E-16   1.80331111763140E-08   4.40162429383914E-16  -1.04494390014017E-08  -3.87061566152876E-17
      7.58001871942713E-09  -1.46767974221006E-17  -1.80294576155566E-08  -2.94876377583215E-17   1.04500011404616E-08
      4.41644351804230E-17
      1.00000000000000E+04
      8.00000000000000E-01   0.00000000000000E+00  -2.41771747599451E+01  -6.07681862033647E-13   4.15752498224755E-16
     -2.19123971209945E-16  -4.10538642150166E-16   9.28725904889874E-17  -5.21385607466318E-18  -9.19942721202854E-09
     -3.99914085326620E-16   2.18195768586456E-08   4.37429285897127E-16  -1.26208774958903E-08  -3.75152005716487E-17
      9.19942708538484E-09  -1.58384128982099E-17  -2.18203044884036E-08  -2.68906437481086E-17   1.26207926721113E-08
      4.27290566459860E-17
      1.00000000000000E+04
      8.00000000000000E-01   0.00000000000000E+00  -2.46771747599451E+01  -1.51920465508412E-13   4.15417391397803E-16
     -2.05034833064227E-16  -4.10429614431663E-16   8.35299851535153E-17  -4.98777696622796E-18  -1.08101816977575E-08
     -3.98551582396104E-16   2.55695816292553E-08   4.35078642137386E-16  -1.47552353253672E-08  -3.65270597414218E-17
      1.08101815762652E-08  -1.68658090017858E-17  -2.55654168180879E-08  -2.46490277058784E-17   1.47551232920390E-08
      4.15148367069563E-17
      1.00000000000000E+04
      8.00000000000000E-01   0.00000000000000E+00  -2.51771747599451E+01   7.59602327542059E-13   4.15117382453418E-16
     -1.93846826639179E-16  -4.10335795188126E-16   7.60833854624363E-17  -4.78158726534943E-18  -1.23856429462958E-08
     -3.97356636100940E-16   2.92033672437510E-08   4.33085673842294E-16  -1.68177192710050E-08  -3.57290377413756E-17
      1.23856428287166E-08  -1.77607463525435E-17  -2.92033620236560E-08  -2.27498786541824E-17   1.68178993727122E-08
      4.05106250070963E-17
      1.00000000000000E+04
      8.00000000000000E-01   0.00000000000000E+00  -2.56771747599451E+01   3.03840931016824E-13   4.14845050897796E-16
     -1.83542736220166E-16  -4.10250083156002E-16   6.96762002738011E-17  -4.59496774187211E-18  -1.39118243432495E-08
     -3.96309278599140E-16   3.27033109281338E-08   4.31405431864378E-16  -1.87919356137663E-08  -3.50961532659137E-17
      1.39118242295308E-08  -1.85357722987403E-17  -3.27037597736401E-08  -2.11553487090443E-17   1.87919539015285E-08
      3.96911210073923E-17
      1.00000000000000E+04
      8.00000000000000E-01   0.00000000000000E+00  -2.61771747599451E+01   9.11522793050471E-13   4.14595055695235E-16
     -1.73875073804390E-16  -4.10168447915873E-16   6.38457993854141E-17  -4.42660777941368E-18  -1.53829691925045E-08
     -3.95387965176229E-16   3.60560436814389E-08   4.29988613665308E-16  -2.06731384970070E-08  -3.46006484889169E-17
      1.53829690825346E-08  -1.92070905190668E-17  -3.60561075157220E-08  -1.98201657492611E-17   2.06727292645226E-08
      3.90272562686228E-17
      1.00000000000000E+04