DF-ISE text

Info {
  version   = 1.0
  type      = xyplot
  datasets  = [
    "frequency"
    "v(Ntop)" "v(Ptop)" "v(Pbot)" "a(Ntop,Ntop)" "c(Ntop,Ntop)"
    "a(Ntop,Ptop)" "c(Ntop,Ptop)" "a(Ntop,Pbot)" "c(Ntop,Pbot)" "a(Ptop,Ntop)"
    "c(Ptop,Ntop)" "a(Ptop,Ptop)" "c(Ptop,Ptop)" "a(Ptop,Pbot)" "c(Ptop,Pbot)"
    "a(Pbot,Ntop)" "c(Pbot,Ntop)" "a(Pbot,Ptop)" "c(Pbot,Ptop)" "a(Pbot,Pbot)"
    "c(Pbot,Pbot)" ]
  functions = [
    Frequency
    Voltage Voltage Voltage Admittance Capacitance
    Admittance Capacitance Admittance Capacitance Admittance
    Capacitance Admittance Capacitance Admittance Capacitance
    Admittance Capacitance Admittance Capacitance Admittance
    Capacitance ]
}

Data {
      1.00000000000000E+04
      8.00000000000000E-01   0.00000000000000E+00  -5.00000000000000E-02  -6.07681862033647E-13   9.17979108678011E-16
     -8.91887232376999E-15  -8.12804267308098E-16  -2.87520838749471E-15  -1.05174841369996E-16  -8.92046601940095E-15
     -8.12804269701748E-16   0.00000000000000E+00   8.12823942605363E-16   1.67939134254088E-15  -1.96729039746992E-20
     -2.87365855383949E-15  -1.05174838976388E-16   1.67784298423534E-15  -1.96752975914343E-20  -6.07681862033647E-13
      1.05194514273739E-16
      1.00000000000000E+04
      8.00000000000000E-01   0.00000000000000E+00  -1.45555555555556E-01  -2.12688651711777E-12   9.13822468314481E-16
     -8.85296530980217E-15  -8.12781868582180E-16  -2.69915243808501E-15  -1.01040599732443E-16  -8.85451537956449E-15
     -8.12781871035419E-16  -1.36728418957571E-12   8.12809345618478E-16   1.61348108686668E-15  -2.74745827079965E-20
     -2.69774782982626E-15  -1.01040597279250E-16   1.61207731723745E-15  -2.74770359109286E-20   0.00000000000000E+00
      1.01068074314887E-16
      1.00000000000000E+04
      8.00000000000000E-01   0.00000000000000E+00  -3.28172839506173E-01  -1.21536372406729E-12   9.07053179872337E-16
     -8.74671318665055E-15  -8.12713556114953E-16  -2.42511509559219E-15  -9.43396237572299E-17  -8.74776667992675E-15
     -8.12713558664616E-16  -1.36728418957571E-12   8.12764024590870E-16   1.50673410304991E-15  -5.04659255936023E-20
     -2.42410368580467E-15  -9.43396212076540E-17   1.50572972383291E-15  -5.04684751895464E-20  -1.51920465508412E-13
      9.43900896833211E-17
      1.00000000000000E+04
      8.00000000000000E-01   0.00000000000000E+00  -6.77174759945130E-01  -1.51920465508412E-13   8.96925847538632E-16
     -8.59201643331119E-15  -8.12407741867039E-16  -2.05153376512492E-15  -8.45181056715565E-17  -8.59156453428336E-15
     -8.12407744562361E-16  -2.58264791364300E-12   8.12554902403124E-16   1.35064010360645E-15  -1.47157839086989E-19
     -2.05205907695884E-15  -8.45181029762583E-17   1.35116857531546E-15  -1.47160534389591E-19  -1.51920465508412E-13
      8.46652635107295E-17
      1.00000000000000E+04
      8.00000000000000E-01   0.00000000000000E+00  -1.17717475994513E+00  -1.36728418957571E-12   8.85265540072030E-16
     -8.43009760171905E-15  -8.10916907238620E-16  -1.69940992514749E-15  -7.43486328334693E-17  -8.42309302362327E-15
     -8.10916910122656E-16  -2.58264791364300E-12   8.11490643797598E-16   1.18952652404980E-15  -5.73733673178677E-19
     -1.70641894208989E-15  -7.43486299494424E-17   1.19653663826698E-15  -5.73736557207342E-19   0.00000000000000E+00
      7.49223665061384E-17
      1.00000000000000E+04
      8.00000000000000E-01   0.00000000000000E+00  -1.67717475994513E+00  -7.59602327542059E-13   8.72429373556530E-16
     -8.25931864504118E-15  -8.05847827748682E-16  -1.45016917387760E-15  -6.65815458082272E-17  -8.23364020357819E-15
     -8.05847830912593E-16  -1.51920465508412E-12   8.07671710243041E-16   1.06368598948460E-15  -1.82387932904206E-18
     -1.47587149884960E-15  -6.65815426443335E-17   1.08938717856680E-15  -1.82388249293739E-18  -1.51920465508412E-13
      6.84054251372655E-17
      1.00000000000000E+04
      8.00000000000000E-01   0.00000000000000E+00  -2.17717475994513E+00  -1.51920465508412E-13   8.50996490303251E-16
     -7.87202480272102E-15  -7.91591562620216E-16  -1.22614733601562E-15  -5.94049276828533E-17  -7.80519414618620E-15
     -7.91591566268754E-16   3.03840931016824E-13   7.96323247182547E-16   9.31356224759086E-16  -4.73168091234139E-18
     -1.29312498192157E-15  -5.94049240343103E-17   9.98328517156989E-16  -4.73168456088417E-18   4.55761396525235E-13
      6.41366085940246E-17
      1.00000000000000E+04
      8.00000000000000E-01   0.00000000000000E+00  -2.67717475994513E+00   3.03840931016824E-13   8.11374208228038E-16
     -6.90769420078492E-15  -7.60063449073976E-16  -9.72232037395709E-16  -5.13107591542239E-17  -6.76944994991600E-15
     -7.60063453443728E-16  -1.06344325855888E-12   7.70034325784831E-16   7.47765457880896E-16  -9.97087234013370E-18
     -1.11047201319447E-15  -5.13107547845306E-17   8.86014304221360E-16  -9.97087670983313E-18  -3.03840931016824E-13
      6.12816314940001E-17
      1.00000000000000E+04
      8.00000000000000E-01   0.00000000000000E+00  -3.17717475994513E+00  -7.59602327542059E-13   7.54618594471798E-16
     -5.36870675605128E-15  -7.11941292390959E-16  -6.94346895835959E-16  -4.26773020808311E-17  -5.15276614733728E-15
     -7.11941297289139E-16  -1.21536372406729E-12   7.28650206964961E-16   5.29632090602758E-16  -1.67089096738354E-17
     -9.10303147277165E-16  -4.26772971826615E-17   7.45585341169069E-16  -1.67089145720060E-17  -6.07681862033647E-13
      5.93862117543637E-17
      1.00000000000000E+04
      8.00000000000000E-01   0.00000000000000E+00  -3.67717475994513E+00  -7.59602327542059E-13   7.00621608381479E-16
     -3.99959878297545E-15  -6.65011405937680E-16  -4.79339888156832E-16  -3.56102024439052E-17  -3.75312196553163E-15
     -6.65011410628611E-16  -1.21536372406729E-12   6.87614090012437E-16   3.63381386832333E-16  -2.26026793828205E-17
     -7.25961125198927E-16  -3.56101977529666E-17   6.10002539758088E-16  -2.26026840737585E-17  -3.03840931016824E-13
      5.82128818264962E-17
      1.00000000000000E+04
      8.00000000000000E-01   0.00000000000000E+00  -4.17717475994513E+00  -1.51920465508412E-13   6.61578482565486E-16
     -3.15374346112270E-15  -6.30725972026654E-16  -3.54055477240088E-16  -3.08525105389088E-17  -2.93433693785887E-15
     -6.30725975923910E-16   1.51920465508412E-13   6.57392454226653E-16   2.71772281351719E-16  -2.66664783022325E-17
     -5.73643922557939E-16  -3.08525066416785E-17   4.91368185455173E-16  -2.66664821994651E-17  -1.51920465508412E-13
      5.75189888404700E-17
      1.00000000000000E+04
      8.00000000000000E-01   0.00000000000000E+00  -4.67717475994513E+00  -1.06344325855888E-12   6.33870855462847E-16
     -2.60226780997599E-15  -6.06279015961857E-16  -2.77856063157675E-16  -2.75918395009891E-17  -2.44428540463838E-15
     -6.06279018891974E-16  -3.03840931016824E-13   6.35759496169546E-16   2.19104322160866E-16  -2.94804772773854E-17
     -4.36038558086526E-16  -2.75918365708842E-17   3.77277229247946E-16  -2.94804802074917E-17  -3.03840931016824E-13
      5.70723167774523E-17
      1.00000000000000E+04
      8.00000000000000E-01   0.00000000000000E+00  -5.17717475994513E+00  -1.21536372406729E-12   6.12057302054855E-16
     -2.19685720461675E-15  -5.86974595024570E-16  -2.26169495889173E-16  -2.50827070304352E-17  -2.09688885486346E-15
     -5.86974597208197E-16  -2.88648884465982E-12   6.18634503947181E-16   1.83127618317737E-16  -3.16599067380810E-17
     -3.26239722293601E-16  -2.50827048468077E-17   2.83197916901207E-16  -3.16599089217086E-17   4.55761396525235E-13
      5.67426137676263E-17
      1.00000000000000E+04
      8.00000000000000E-01   0.00000000000000E+00  -5.67717475994513E+00  -1.51920465508412E-13   5.92933601434647E-16
     -1.90019402384315E-15  -5.70001228509816E-16  -1.90030431138997E-16  -2.29323729249580E-17  -1.83657973041650E-15
     -5.70001230270282E-16   0.00000000000000E+00   6.03539603160979E-16   1.56660592060033E-16  -3.35383728899996E-17
     -2.53730997603355E-16  -2.29323711644787E-17   2.20359267204087E-16  -3.35383746504778E-17  -1.51920465508412E-13
      5.64707458145103E-17
      1.00000000000000E+04
      8.00000000000000E-01   0.00000000000000E+00  -6.17717475994513E+00  -9.11522793050471E-13   5.74655025453638E-16
     -1.66933986723055E-15  -5.53720618234655E-16  -1.62704333057185E-16  -2.09344072190607E-17  -1.62536507532535E-15
     -5.53720619772139E-16  -7.59602327542059E-13   5.89014956050492E-16   1.35390112665660E-16  -3.52943362778199E-17
     -2.06611770459433E-16  -2.09344056815784E-17   1.79302670713546E-16  -3.52943378153022E-17  -3.03840931016824E-13
      5.62287434971948E-17
      1.00000000000000E+04
      8.00000000000000E-01   0.00000000000000E+00  -6.67717475994513E+00   1.21536372406729E-12   5.55839905033820E-16
     -1.46501688708862E-15  -5.36886797402938E-16  -1.39336456060191E-16  -1.89531076310125E-17  -1.43207576730804E-15
     -5.36886798811974E-16   9.11522793050471E-13   5.73934511587453E-16   1.16242057689484E-16  -3.70477127755411E-17
     -1.72410171218337E-16  -1.89531062219665E-17   1.49316563437029E-16  -3.70477141845863E-17  -1.51920465508412E-13
      5.60008204060933E-17
      1.00000000000000E+04
      8.00000000000000E-01   0.00000000000000E+00  -7.17717475994513E+00  -7.59602327542059E-13   5.35082779075943E-16
     -1.25749861401076E-15  -5.18213067015590E-16  -1.16599751852248E-16  -1.68697120604235E-17  -1.23049596419418E-15
     -5.18213068336597E-16   1.82304558610094E-12   5.57119093091350E-16   9.68899476802188E-17  -3.89060247540502E-17
     -1.43700107582737E-16  -1.68697107394200E-17   1.24001633528255E-16  -3.89060260750540E-17   0.00000000000000E+00
      5.57757368142019E-17
      1.00000000000000E+04
      8.00000000000000E-01   0.00000000000000E+00  -7.67717475994513E+00   4.55761396525235E-13   5.10818976490465E-16
     -1.01890659697268E-15  -4.96248857194701E-16  -9.19115453286413E-17  -1.45701192958675E-17  -9.94828485958307E-16
     -4.96248858433553E-16  -3.03840931016824E-13   5.37223612122917E-16   7.52882178819074E-17  -4.09747536892917E-17
     -1.16130534976304E-16  -1.45701180570206E-17   9.95160984073479E-17  -4.09747549281389E-17   4.55761396525235E-13
      5.55448729841971E-17
      1.00000000000000E+04
      8.00000000000000E-01   0.00000000000000E+00  -8.17717475994513E+00  -3.03840931016824E-13   4.82073939186548E-16
     -7.33553188941721E-16  -4.70065121058377E-16  -6.41346811858849E-17  -1.20088181282664E-17  -7.10129326564484E-16
     -4.70065122183668E-16   7.59602327542059E-13   5.13363478959203E-16   5.05217621073288E-17  -4.32983567743226E-17
     -8.74882047924189E-17  -1.20088170029654E-17   7.38812304327394E-17  -4.32983578996227E-17   1.51920465508412E-13
      5.53071749024008E-17
      1.00000000000000E+04
      8.00000000000000E-01   0.00000000000000E+00  -8.67717475994513E+00   4.55761396525235E-13   4.51107103804793E-16
     -4.35906666232667E-16  -4.41697849359184E-16  -3.67588651360102E-17  -9.40925444568102E-18  -4.12702407223165E-16
     -4.41697850304784E-16  -7.59602327542059E-13   4.87372249014103E-16   2.58075446638288E-17  -4.56743987084664E-17
     -6.01716777380125E-17  -9.40925350008536E-18   4.92137612988914E-17  -4.56743996540625E-17   1.51920465508412E-13
      5.50836531542947E-17
      1.00000000000000E+04
      8.00000000000000E-01   0.00000000000000E+00  -9.17717475994513E+00  -1.51920465508412E-13   4.24922786787247E-16
     -2.18977551567853E-16  -4.17593903604479E-16  -1.75633258980957E-17  -7.32888318282949E-18  -1.95703201420038E-16
     -4.17593904317892E-16  -1.36728418957571E-12   4.65182529656889E-16   8.07538011381742E-18  -4.75886253387270E-17
     -4.08708715962616E-17  -7.32888246941680E-18   3.13710859991758E-17  -4.75886260521398E-17  -1.51920465508412E-13
      5.49175085212999E-17
      1.00000000000000E+04
      8.00000000000000E-01   0.00000000000000E+00  -9.67717475994513E+00   9.11522793050471E-13   4.08543576145805E-16
     -1.15545137123879E-16  -4.02448132772152E-16  -8.51490594038056E-18  -6.09544337378182E-18  -9.41378872077695E-17
     -4.02448133264628E-16  -7.59602327542059E-13   4.51180132993754E-16  -1.86255751591090E-18  -4.87319997280641E-17
     -2.98156985890703E-17  -6.09544288130591E-18   1.94288840369141E-17  -4.87320002205400E-17  -1.51920465508412E-13
      5.48274431017870E-17
      1.00000000000000E+04
      8.00000000000000E-01   0.00000000000000E+00  -1.01771747599451E+01  -3.03840931016824E-13   4.00156484116048E-16
     -7.72595031193222E-17  -3.94658151281421E-16  -5.01809641085326E-18  -5.49833283468993E-18  -6.21573641642675E-17
     -3.94658151600711E-16  -1.36728418957571E-12   4.43950067045730E-16  -1.24677387379379E-17  -4.92919154431869E-17
     -2.02365330582694E-17  -5.49833251539952E-18   2.76642013529927E-18  -4.92919157624772E-17  -1.51920465508412E-13
      5.47902482781030E-17
      1.00000000000000E+04
      8.00000000000000E-01   0.00000000000000E+00  -1.06771747599451E+01   0.00000000000000E+00   3.96013999581805E-16
     -6.21867137146010E-17  -3.90794417123799E-16  -3.44809481445501E-18  -5.21958245806176E-18  -6.45844739087082E-17
     -3.90794417294738E-16   1.51920465508412E-13   4.40353276741175E-16  -4.24169952295628E-17  -4.95588594456203E-17
     -1.18150064844354E-18  -5.21958228712297E-18  -4.46853860251412E-17  -4.95588596165591E-17  -3.03840931016824E-13
      5.47784419032687E-17
      1.00000000000000E+04
      8.00000000000000E-01   0.00000000000000E+00  -1.11771747599451E+01   1.51920465508412E-13   3.93785082807218E-16
     -5.30174935366454E-17  -3.88709132824779E-16  -2.42883482467126E-18  -5.07594998252501E-18  -1.10453969936432E-16
     -3.88709132791129E-16  -4.55761396525235E-13   4.38410493963858E-16  -1.46603412973859E-16  -4.97013611717377E-17
      5.49184861001467E-17  -5.07595001617586E-18  -2.03941294375683E-16  -4.97013611380867E-17  -1.51920465508412E-13
      5.47773111545402E-17
      1.00000000000000E+04
      8.00000000000000E-01   0.00000000000000E+00  -1.16771747599451E+01  -1.51920465508412E-13   3.92406696913489E-16
     -4.45843705830885E-17  -3.87418440066494E-16  -1.58357277092885E-18  -4.98825684704745E-18  -2.82981074810518E-16
     -3.87418439551400E-16  -1.06344325855888E-12   4.37211007242295E-16  -5.05892448185581E-16  -4.97925676900194E-17
      2.36620502226185E-16  -4.98825736214100E-18  -7.44136766239339E-16  -4.97925671749262E-17   4.55761396525235E-13
      5.47808245370339E-17
      1.00000000000000E+04
      8.00000000000000E-01   0.00000000000000E+00  -1.21771747599451E+01  -6.07681862033647E-13   3.91430657428488E-16
     -3.66356050310330E-17  -3.86505879721092E-16  -8.70610776653555E-19  -4.92477770744464E-18  -8.68108808658977E-16
     -3.86505877788512E-16   1.36728418957571E-12   4.36367792130487E-16  -1.70610679145810E-15  -4.98619143404299E-17
      8.30360661204523E-16  -4.92477964002387E-18  -2.53733208307374E-15  -4.98619124078506E-17   4.55761396525235E-13
      5.47866920477091E-17
      1.00000000000000E+04
      8.00000000000000E-01   0.00000000000000E+00  -1.26771747599451E+01  -3.03840931016824E-13   3.90665051808422E-16
     -2.99712027500542E-17  -3.85792425422498E-16  -3.11600459420107E-19  -4.87262638593265E-18  -2.76224061453877E-15
     -3.85792419157094E-16  -1.67112512059253E-12   4.35713840744140E-16  -5.57868475886027E-15  -4.99214215874692E-17
      2.73170382050533E-15  -4.87263265133671E-18  -8.31069801165482E-15  -4.99214153220652E-17  -1.51920465508412E-13
      5.47940479735884E-17
      1.00000000000000E+04
      8.00000000000000E-01   0.00000000000000E+00  -1.31771747599451E+01   4.55761396525235E-13   3.90022809017554E-16
     -2.52186412252000E-17  -3.85196543079397E-16   1.12063804864917E-19  -4.82626593816198E-18  -8.66015964139438E-15
     -3.85196523793124E-16   1.82304558610094E-12   4.35172818314427E-16  -1.76363564959679E-14  -4.99762945202035E-17
      8.63500439242427E-15  -4.82628522443546E-18  -2.62712513352994E-14  -4.99762752339300E-17  -1.51920465508412E-13
      5.48025604584530E-17
      1.00000000000000E+04
      8.00000000000000E-01   0.00000000000000E+00  -1.36771747599451E+01   3.03840931016824E-13   3.89461199294762E-16
     -2.17699799479521E-17  -3.84678086411468E-16   4.64800110787690E-19  -4.78311288326225E-18  -2.63593422868783E-14
     -3.84678029175674E-16   7.59602327542059E-13   4.34707011811957E-16  -5.38407513620993E-14  -5.00289826350708E-17
      2.63379134651974E-14  -4.78317011905589E-18  -8.01781936382032E-14  -5.00289253992772E-17  -1.51920465508412E-13
      5.48120955178194E-17
      1.00000000000000E+04
      8.00000000000000E-01   0.00000000000000E+00  -1.41771747599451E+01   9.11522793050471E-13   3.88957355949732E-16
     -1.96791807241420E-17  -3.84215525267109E-16   8.40359867955958E-19  -4.74183068268248E-18  -7.75560915334810E-14
     -3.84215361167534E-16   3.94993210321871E-12   4.34296097732627E-16  -1.58605564560242E-13  -5.00807365651943E-17
      7.75371509255370E-14  -4.74199478225719E-18  -2.36141892580444E-13  -5.00805724656196E-17   4.55761396525235E-13
      5.48225672467837E-17
      1.00000000000000E+04
      8.00000000000000E-01   0.00000000000000E+00  -1.46771747599451E+01   3.03840931016824E-13   3.88497960913497E-16
     -1.86776504663627E-17  -3.83796324525985E-16   1.38611637465021E-18  -4.70163638752813E-18  -2.20230621769286E-13
     -3.83795870135021E-16   1.82304558610094E-12   4.33928051664424E-16  -4.50562210602267E-13  -5.01321815286712E-17
      2.20213261662697E-13  -4.70209077849259E-18  -6.70774097378073E-13  -5.01317271377068E-17   4.55761396525235E-13
      5.48338179160086E-17
      1.00000000000000E+04
      8.00000000000000E-01   0.00000000000000E+00  -1.51771747599451E+01   9.11522793050471E-13   3.88074658569568E-16
     -1.90486013092417E-17  -3.83412663272560E-16   2.37191809975575E-18  -4.66199529703143E-18  -6.02988924342129E-13
     -3.83411449045177E-16   3.19032977567665E-12   4.33594877187003E-16  -1.23346811277524E-12  -5.01834281420549E-17
      6.02972392047546E-13  -4.66320952441394E-18  -1.83643812880573E-12  -5.01822139146724E-17   1.06344325855888E-12
      5.48454234386853E-17
      1.00000000000000E+04
      8.00000000000000E-01   0.00000000000000E+00  -1.56771747599451E+01  -3.03840931016824E-13   3.87681894685249E-16
     -2.07872907431216E-17  -3.83059432874437E-16   4.35639364977425E-18  -4.62246181083125E-18  -1.59051479026614E-12
     -3.83056304511503E-16   7.89986420643741E-12   4.33290130184423E-16  -3.25159988920672E-12  -5.02338256723098E-17
      1.59049823366708E-12  -4.62559017376452E-18  -4.84209377016863E-12  -5.02306973093766E-17   2.58264791364300E-12
      5.48562874832052E-17
      1.00000000000000E+04
      8.00000000000000E-01   0.00000000000000E+00  -1.61771747599451E+01   6.07681862033647E-13   3.87315846315382E-16
     -2.62913031567874E-17  -3.82733284419895E-16   8.50306662957002E-18  -4.58256189553540E-18  -4.03775723345582E-12
     -3.82725521909044E-16   1.12421144476225E-11   4.33006749248137E-16  -8.24595670001749E-12  -5.02812273382067E-17
      4.03773931100517E-12  -4.59032440638550E-18  -1.22836875272231E-11  -5.02734648273568E-17   7.74794374092900E-12
      5.48637892330643E-17
      1.00000000000000E+04
      8.00000000000000E-01   0.00000000000000E+00  -1.66771747599451E+01  -1.51920465508412E-13   3.86973886901384E-16
     -3.88295758746174E-17  -3.82432228027418E-16   1.71275423008168E-17  -4.54165887399797E-18  -9.85337366081436E-12
     -3.82413703554417E-16   3.38782638083758E-11   4.32734134363541E-16  -2.00915235887021E-11  -5.03204308091749E-17
      9.85335193525847E-12  -4.56018334699948E-18  -2.99448583738917E-11  -5.03019063361734E-17   1.97496605160935E-11
      5.48620896831702E-17
      1.00000000000000E+04
      8.00000000000000E-01   0.00000000000000E+00  -1.71771747599451E+01   6.07681862033647E-13   3.86654352003758E-16
     -6.45327389218339E-17  -3.82155593905443E-16   3.43313859324857E-17  -4.49875809837117E-18  -2.30759067401129E-11
     -3.82113159166604E-16   7.18583801854788E-11   4.32453424735347E-16  -4.69537851953200E-11  -5.03402655691572E-17
      2.30758766303830E-11  -4.54119283721078E-18  -7.00296275032397E-11  -5.02978308303175E-17   4.70953443076077E-11
      5.48390236670804E-17
      1.00000000000000E+04
      8.00000000000000E-01   0.00000000000000E+00  -1.76771747599451E+01   0.00000000000000E+00   3.86356506204732E-16
     -1.11935164065550E-16  -3.81904288370844E-16   6.58501246431061E-17  -4.45221783390057E-18  -5.17449514965297E-11
     -3.81811229171776E-16   1.59212647852816E-10   4.32130010370083E-16  -1.04996986802477E-10  -5.03187811968815E-17
      5.17449053714260E-11  -4.54527703296876E-18  -1.56741826292674E-10  -5.02257219978134E-17   1.04673200735296E-10
      5.47709990307871E-17
      1.00000000000000E+04
      8.00000000000000E-01   0.00000000000000E+00  -1.81771747599451E+01   3.03840931016824E-13   3.86080653748155E-16
     -1.88228431584903E-16  -3.81681278420244E-16   1.15699491849084E-16  -4.39937532797886E-18  -1.10742781281551E-10
     -3.81486659453738E-16   3.35896149239098E-10   4.31703286986931E-16  -2.23909869180144E-10  -5.02166275327497E-17
      1.10742708814053E-10  -4.59399429448635E-18  -3.34652462305040E-10  -5.00220085662421E-17   2.23930766159399E-10
      5.46160028611361E-17
      1.00000000000000E+04
      8.00000000000000E-01   0.00000000000000E+00  -1.86771747599451E+01   0.00000000000000E+00   3.85828303004778E-16
     -2.85438742932323E-16  -3.81492091284984E-16   1.77919719877580E-16  -4.33621171987313E-18  -2.25211595116163E-10
     -3.81106014980204E-16   6.82578651529294E-10   4.31076919970428E-16  -4.53283239287232E-10  -4.99709049896634E-17
      2.25211487660570E-10  -4.72228802465320E-18  -6.78494549059362E-10  -4.95848286848832E-17   4.52874907680576E-10
      5.43071167098260E-17
      1.00000000000000E+04
      8.00000000000000E-01   0.00000000000000E+00  -1.91771747599451E+01   1.51920465508412E-13   3.85602187563304E-16
     -3.73736223187974E-16  -3.81344798539775E-16   2.31703031112447E-16  -4.25738902359398E-18  -4.32780686873795E-10
     -3.80623303116907E-16   1.29831229823489E-09   4.30119415144017E-16  -8.66054884001518E-10  -4.94961120269890E-17
      4.32780544744854E-10  -4.97888444646176E-18  -1.29883519705437E-09  -4.87746166041211E-17   8.66706255725489E-10
      5.37535010500113E-17
      1.00000000000000E+04
      8.00000000000000E-01   0.00000000000000E+00  -1.96771747599451E+01   3.03840931016824E-13   3.85405825737630E-16
     -4.20681155075128E-16  -3.81248650573170E-16   2.55259288377787E-16  -4.15717516453356E-18  -7.81010313217021E-10
     -3.79988179970679E-16   2.33562523672632E-09   4.28690955928769E-16  -1.55172434589477E-09  -4.87027759571765E-17
      7.81010147686347E-10  -5.41764576702323E-18  -2.33273423829781E-09  -4.74423053546886E-17   1.55125987330639E-09
      5.28599511212937E-17
      1.00000000000000E+04
      8.00000000000000E-01   0.00000000000000E+00  -2.01771747599451E+01   0.00000000000000E+00   3.85242380218441E-16
     -4.19838170553236E-16  -3.81210851410529E-16   2.45848591915006E-16  -4.03152880796216E-18  -1.31648238314878E-09
     -3.79165892050726E-16   3.91043278218652E-09   4.26704598463862E-16  -2.59276427939051E-09  -4.75387064121163E-17
      1.31648220907885E-09  -6.07648816776414E-18  -3.90924624260238E-09  -4.54937470523173E-17   2.59237082343554E-09
      5.15702352198234E-17
      1.00000000000000E+04
      8.00000000000000E-01   0.00000000000000E+00  -2.06771747599451E+01   0.00000000000000E+00   3.85113095909322E-16
     -3.89779952415680E-16  -3.81232502775494E-16   2.17653942544893E-16  -3.88059313391953E-18  -2.06725451081133E-09
     -3.78161065129472E-16   6.09884708783519E-09   4.24195675798374E-16  -4.02925973475522E-09  -4.60346106679668E-17
      2.06725433834420E-09  -6.95203077994036E-18  -6.09651385542300E-09  -4.29631730219514E-17   4.02923458621410E-09
      4.99152038017361E-17
      1.00000000000000E+04
      8.00000000000000E-01   0.00000000000000E+00  -2.11771747599451E+01  -3.03840931016824E-13   3.85016252882721E-16
     -3.52576496358509E-16  -3.81306469938431E-16   1.85591777355712E-16  -3.70978294434066E-18  -3.02890989460588E-09
     -3.77025942135396E-16   8.86319187822625E-09   4.21340217810119E-16  -5.83380774796812E-09  -4.43142756728405E-17
      3.02890972761738E-09  -7.99031074737531E-18  -8.86271728999356E-09  -4.00337478698079E-17   5.83359395505750E-09
      4.80240586171621E-17
      1.00000000000000E+04
      8.00000000000000E-01   0.00000000000000E+00  -2.16771747599451E+01   3.03840931016824E-13   3.84947455620783E-16
     -3.16843783827728E-16  -3.81419192064983E-16   1.56544924949570E-16  -3.52826355589494E-18  -4.16523387702982E-09
     -3.75841802969255E-16   1.20840576674701E-08   4.18391980726282E-16  -7.91803780055161E-09  -4.25501777553191E-17
      4.16523371681843E-09  -9.10565265162113E-18  -1.20832713608085E-08  -3.69727886595991E-17   7.91779082136741E-09
      4.60784413105651E-17
      1.00000000000000E+04
      8.00000000000000E-01   0.00000000000000E+00  -2.21771747599451E+01   0.00000000000000E+00   3.84901015041864E-16
     -2.83262015831996E-16  -3.81555195108808E-16   1.31494982858291E-16  -3.34581993314988E-18  -5.42285779354913E-09
     -3.74687171575635E-16   1.55929646593179E-08   4.15584212546064E-16  -1.01663084872928E-08  -4.08970409692537E-17
      5.42285764154176E-09  -1.02138434663225E-17  -1.55891659973417E-08  -3.40290174360847E-17   1.01662137108919E-08
      4.42428609025854E-17
      1.00000000000000E+04
      8.00000000000000E-01   0.00000000000000E+00  -2.26771747599451E+01   3.03840931016824E-13   3.84871409235644E-16
     -2.52169163222601E-16  -3.81701155256018E-16   1.10014667848242E-16  -3.17025397973513E-18  -6.74854871393244E-09
     -3.73615887764147E-16   1.92199138528657E-08   4.13066749744418E-16  -1.24714582458343E-08  -3.94508619781653E-17
      6.74854857158482E-09  -1.12555214716056E-17  -1.92200067074029E-08  -3.13655944863004E-17   1.24720625363786E-08
      4.26211159569355E-17
      1.00000000000000E+04
      8.00000000000000E-01   0.00000000000000E+00  -2.31771747599451E+01  -4.55761396525235E-13   3.84854112480373E-16
     -2.23849141327009E-16  -3.81847699601347E-16   9.18856256756771E-17  -3.00641287908604E-18  -8.09979421509776E-09
     -3.72653274537422E-16   2.28543071492234E-08   4.10899920214285E-16  -1.47542036864026E-08  -3.82466456753869E-17
      8.09979408311359E-09  -1.22008379430124E-17  -2.28539976776373E-08  -2.90522206114626E-17   1.47542117692459E-08
      4.12530585543092E-17
      1.00000000000000E+04
      8.00000000000000E-01   0.00000000000000E+00  -2.36771747599451E+01  -4.55761396525235E-13   3.84845771747584E-16
     -1.98746316618380E-16  -3.81989264017309E-16   7.69275242261846E-17  -2.85650773037058E-18  -9.44747200192557E-09
     -3.71803422610279E-16   2.64119806104994E-08   4.09080830397327E-16  -1.69656343789967E-08  -3.72774077855198E-17
      9.44747188005157E-09  -1.30423491373945E-17  -2.64131061820906E-08  -2.70915663785109E-17   1.69655660651864E-08
      4.01339155158431E-17
      1.00000000000000E+04
      8.00000000000000E-01   0.00000000000000E+00  -2.41771747599451E+01  -6.07681862033647E-13   3.84844032753629E-16
     -1.77437655772950E-16  -3.82123107991606E-16   6.47871652900474E-17  -2.72092476211928E-18  -1.07739357293987E-08
     -3.71058540355369E-16   2.98549541203166E-08   4.07573677910041E-16  -1.90809450007794E-08  -3.65151375535995E-17
      1.07739356168484E-08  -1.37854923983551E-17  -2.98548805528334E-08  -2.54505699173698E-17   1.90807547064600E-08
      3.92360623154107E-17
      1.00000000000000E+04
      8.00000000000000E-01   0.00000000000000E+00  -2.46771747599451E+01  -1.51920465508412E-13   3.84847274786559E-16
     -1.58997973309552E-16  -3.82248277066928E-16   5.49944213761479E-17  -2.59899771972167E-18  -1.20697611578733E-08
     -3.70405950727643E-16   3.31636299386243E-08   4.06331291945836E-16  -2.10913890707245E-08  -3.59253412161736E-17
      1.20697610536310E-08  -1.44413240590099E-17  -3.31611500693827E-08  -2.40830148768833E-17   2.10914220674638E-08
      3.85243389349557E-17
      1.00000000000000E+04
      8.00000000000000E-01   0.00000000000000E+00  -2.51771747599451E+01   3.03840931016824E-13   3.84854377379140E-16
     -1.44052998913812E-16  -3.82364818472501E-16   4.70778229344551E-17  -2.48955890674759E-18  -1.33308139225658E-08
     -3.69832129547292E-16   3.63279813146990E-08   4.05306913350824E-16  -2.29976657826064E-08  -3.54747838021606E-17
      1.33308138256348E-08  -1.50222478319690E-17  -3.63284795612205E-08  -2.29420948769273E-17   2.29968085458703E-08
      3.79643427082032E-17
      1.00000000000000E+04
      8.00000000000000E-01   0.00000000000000E+00  -2.56771747599451E+01  -6.07681862033647E-13   3.84864550084544E-16
     -1.30981540032727E-16  -3.82473275590007E-16   4.06333434828697E-17  -2.39127449464064E-18  -1.45561123297766E-08
     -3.69324604908013E-16   3.93638079769536E-08   4.04459266497586E-16  -2.48054072733307E-08  -3.51346615882074E-17
      1.45561122392874E-08  -1.55399451766360E-17  -3.93615194719923E-08  -2.19859909062146E-17   2.48052697672825E-08
      3.75259360827376E-17
      1.00000000000000E+04
      8.00000000000000E-01   0.00000000000000E+00  -2.61771747599451E+01  -3.03840931016824E-13   3.84877218588818E-16
     -1.20171736128704E-16  -3.82574392958655E-16   3.53380281516156E-17  -2.30282563022314E-18  -1.57464279816356E-08
     -3.68872629915786E-16   4.22659446295608E-08   4.03753955046191E-16  -2.65224131427856E-08  -3.48813251291189E-17
      1.57464278968536E-08  -1.60045886730957E-17  -4.22688410043095E-08  -2.11795620862475E-17   2.65227306298551E-08
      3.71841507594950E-17
      1.00000000000000E+04