DF-ISE text

Info {
  version   = 1.0
  type      = xyplot
  datasets  = [
    "frequency"
    "v(Ntop)" "v(Ptop)" "v(Pbot)" "a(Ntop,Ntop)" "c(Ntop,Ntop)"
    "a(Ntop,Ptop)" "c(Ntop,Ptop)" "a(Ntop,Pbot)" "c(Ntop,Pbot)" "a(Ptop,Ntop)"
    "c(Ptop,Ntop)" "a(Ptop,Ptop)" "c(Ptop,Ptop)" "a(Ptop,Pbot)" "c(Ptop,Pbot)"
    "a(Pbot,Ntop)" "c(Pbot,Ntop)" "a(Pbot,Ptop)" "c(Pbot,Ptop)" "a(Pbot,Pbot)"
    "c(Pbot,Pbot)" ]
  functions = [
    Frequency
    Voltage Voltage Voltage Admittance Capacitance
    Admittance Capacitance Admittance Capacitance Admittance
    Capacitance Admittance Capacitance Admittance Capacitance
    Admittance Capacitance Admittance Capacitance Admittance
    Capacitance ]
}

Data {
      1.00000000000000E+04
      8.00000000000000E-01   0.00000000000000E+00  -5.00000000000000E-02  -7.59602327542059E-13   9.68403462518752E-16
     -1.05528350706428E-14  -8.63228726828558E-16  -3.23054055505174E-15  -1.05174735690261E-16  -1.05547018347574E-14
     -8.63228729905810E-16  -7.59602327542059E-13   8.63248476398355E-16   1.97132664359938E-15  -1.97464915504750E-20
     -3.22898742662326E-15  -1.05174732613103E-16   1.96977605005707E-15  -1.97495687277552E-20  -3.03840931016824E-13
      1.05194482181731E-16
      1.00000000000000E+04
      8.00000000000000E-01   0.00000000000000E+00  -1.45555555555556E-01  -6.07681862033647E-13   9.64246687218871E-16
     -1.04760697001157E-14  -8.63206231375378E-16  -3.03811061089808E-15  -1.01040455843712E-16  -1.04772838769247E-14
     -8.63206234522918E-16  -1.82304558610094E-12   8.63233810163124E-16   1.89392845742191E-15  -2.75756402983234E-20
     -3.03670198112053E-15  -1.01040452696192E-16   1.89252273023655E-15  -2.75787878237148E-20  -1.51920465508412E-13
      1.01068031483290E-16
      1.00000000000000E+04
      8.00000000000000E-01   0.00000000000000E+00  -3.28172839506173E-01  -6.07681862033647E-13   9.57476990413298E-16
     -1.03504235577498E-14  -8.63137622290492E-16  -2.73793528957887E-15  -9.43393681230705E-17  -1.03515798240895E-14
     -8.63137625551366E-16  -7.59602327542059E-13   8.63188273922247E-16   1.76854683301978E-15  -5.06483704746972E-20
     -2.73693199064192E-15  -9.43393648622319E-17   1.76754143360539E-15  -5.06516313175290E-20   3.03840931016824E-13
      9.43900164932336E-17
      1.00000000000000E+04
      8.00000000000000E-01   0.00000000000000E+00  -6.77174759945130E-01  -1.51920465508412E-13   9.47347851844949E-16
     -1.01664906030821E-14  -8.62830465171670E-16  -2.32688706076201E-15  -8.45173866736224E-17  -1.01663960791961E-14
     -8.62830468601997E-16  -4.55761396525235E-13   8.62978154345093E-16   1.58505325816269E-15  -1.47685741885914E-19
     -2.32742800945099E-15  -8.45173832432695E-17   1.58558525759624E-15  -1.47689172231404E-19   6.07681862033647E-13
      8.46650724153392E-17
      1.00000000000000E+04
      8.00000000000000E-01   0.00000000000000E+00  -1.17717475994513E+00  -1.21536372406729E-12   9.35678801160089E-16
     -9.96779861237856E-15  -8.61332900802520E-16  -1.93668111156243E-15  -7.43459003577288E-17  -9.96097911347985E-15
     -8.61332904445318E-16  -3.03840931016824E-13   8.61908728960053E-16   1.39511521818264E-15  -5.75824513813216E-19
     -1.94370776716968E-15  -7.43458967150595E-17   1.40215176476547E-15  -5.75828156501949E-19  -1.51920465508412E-13
      7.49217248708492E-17
      1.00000000000000E+04
      8.00000000000000E-01   0.00000000000000E+00  -1.67717475994513E+00   1.51920465508412E-13   9.22812425709224E-16
     -9.74680437012798E-15  -8.56239537598357E-16  -1.65777730274195E-15  -6.65728881110841E-17  -9.72098746203066E-15
     -8.56239541540213E-16  -1.36728418957571E-12   8.58070377127336E-16   1.24588278737076E-15  -1.83083558601928E-18
     -1.68357706116804E-15  -6.65728841692922E-17   1.27168418408095E-15  -1.83083952781904E-18   0.00000000000000E+00
      6.84037236963880E-17
      1.00000000000000E+04
      8.00000000000000E-01   0.00000000000000E+00  -2.17717475994513E+00   4.55761396525235E-13   9.01290138766230E-16
     -9.25887379018015E-15  -8.41908285698106E-16  -1.40402109652994E-15  -5.93818530682735E-17  -9.19189145298751E-15
     -8.41908290136528E-16  -4.55761396525235E-13   8.46659393590851E-16   1.08900252912692E-15  -4.75110345392804E-18
     -1.47127451224499E-15  -5.93818486299424E-17   1.15626358777068E-15  -4.75110789226962E-18   4.55761396525235E-13
      6.41329565217832E-17
      1.00000000000000E+04
      8.00000000000000E-01   0.00000000000000E+00  -2.67717475994513E+00  -1.51920465508412E-13   8.61459539821362E-16
     -8.10122525078427E-15  -8.10199063649754E-16  -1.11383530564268E-15  -5.12604761718198E-17  -7.96224716248021E-15
     -8.10199068804150E-16  -1.82304558610094E-12   8.20213866798709E-16   8.74312683887087E-16  -1.00147979931077E-17
     -1.25272963685479E-15  -5.12604710174618E-17   1.01320830958676E-15  -1.00148031474699E-17   1.51920465508412E-13
      6.12752741650776E-17
      1.00000000000000E+04
      8.00000000000000E-01   0.00000000000000E+00  -3.17717475994513E+00  -4.55761396525235E-13   8.04392577683724E-16
     -6.30115333934225E-15  -7.61798833055956E-16  -7.97646337723997E-16  -4.25937446278710E-17  -6.08414580275503E-15
     -7.61798838697756E-16  -1.51920465508412E-13   7.78582524294015E-16   6.22583772653920E-16  -1.67836855952438E-17
     -1.01459731959252E-15  -4.25937389860793E-17   8.39540359104273E-16  -1.67836912370361E-17  -6.07681862033647E-13
      5.93774302234166E-17
      1.00000000000000E+04
      8.00000000000000E-01   0.00000000000000E+00  -3.67717475994513E+00   3.03840931016824E-13   7.50112120551598E-16
     -4.71345047548530E-15  -7.14609939242064E-16  -5.54367555010551E-16  -3.55021813098160E-17  -4.46577691094301E-15
     -7.14609944601824E-16  -7.59602327542059E-13   7.37310767336540E-16   4.31247226074494E-16  -2.27008227335581E-17
     -8.01987636251978E-16  -3.55021759500581E-17   6.78866219946529E-16  -2.27008280933161E-17   1.51920465508412E-13
      5.82030040435689E-17
      1.00000000000000E+04
      8.00000000000000E-01   0.00000000000000E+00  -4.17717475994513E+00   3.03840931016824E-13   7.10829995640161E-16
     -3.73087771836031E-15  -6.80102522023752E-16  -4.12500811557764E-16  -3.07274736166684E-17  -3.51050288407093E-15
     -6.80102526510310E-16  -1.21536372406729E-12   7.06883728905397E-16   3.24853995877500E-16  -2.67812023948125E-17
     -6.32739168537910E-16  -3.07274691301285E-17   5.45091904650505E-16  -2.67812068813540E-17   3.03840931016824E-13
      5.75086760113590E-17
      1.00000000000000E+04
      8.00000000000000E-01   0.00000000000000E+00  -4.67717475994513E+00   4.55761396525235E-13   6.82867294081963E-16
     -3.09404807349499E-15  -6.55417635509833E-16  -3.26330159228366E-16  -2.74496585724381E-17  -2.93568491540964E-15
     -6.55417638959389E-16  -1.82304558610094E-12   6.85029400466485E-16   2.63266010331108E-16  -2.96117615057824E-17
     -4.84777203071353E-16  -2.74496551229057E-17   4.21714217081030E-16  -2.96117649553169E-17   1.51920465508412E-13
      5.70614200778676E-17
      1.00000000000000E+04
      8.00000000000000E-01   0.00000000000000E+00  -5.17717475994513E+00   9.11522793050471E-13   6.60740930432332E-16
     -2.62972057116479E-15  -6.35821659136089E-16  -2.67834605420012E-16  -2.49192712964842E-17  -2.52940646932022E-15
     -6.35821661789006E-16  -2.12688651711777E-12   6.67633099488897E-16   2.21170719798510E-16  -3.18114376995704E-17
     -3.68036725857640E-16  -2.49192686435480E-17   3.21372383675069E-16  -3.18114403525049E-17  -3.03840931016824E-13
      5.67307089948502E-17
      1.00000000000000E+04
      8.00000000000000E-01   0.00000000000000E+00  -5.67717475994513E+00  -1.97496605160935E-12   6.41207377860333E-16
     -2.28583940846906E-15  -6.18466900109754E-16  -2.26383585758838E-16  -2.27404777509244E-17  -2.22211917837455E-15
     -6.18466902309052E-16   1.82304558610094E-12   6.52183658934329E-16   1.89911322392687E-16  -3.37167566235294E-17
     -2.90229396819656E-16  -2.27404755516495E-17   2.53768222102420E-16  -3.37167588228061E-17   7.59602327542059E-13
      5.64572343742573E-17
      1.00000000000000E+04
      8.00000000000000E-01   0.00000000000000E+00  -6.17717475994513E+00   0.00000000000000E+00   6.22361452371390E-16
     -2.01235342026056E-15  -6.01659138161670E-16  -1.94343432339364E-16  -2.07023142099473E-17  -1.96808683834484E-15
     -6.01659140119366E-16  -2.58264791364300E-12   6.37169561932879E-16   1.64376691605513E-16  -3.55104218124087E-17
     -2.38462256741172E-16  -2.07023122522311E-17   2.08492815515741E-16  -3.55104237701230E-17   0.00000000000000E+00
      5.62127360227114E-17
      1.00000000000000E+04
      8.00000000000000E-01   0.00000000000000E+00  -6.67717475994513E+00   1.51920465508412E-13   6.02719374664071E-16
     -1.76292133431728E-15  -5.84057782622371E-16  -1.66203131948864E-16  -1.86615920419042E-17  -1.72982906950133E-15
     -5.84057784438166E-16   0.00000000000000E+00   6.21377118265501E-16   1.40895187330781E-16  -3.73193338255987E-17
     -1.99563239610801E-16  -1.86615902261239E-17   1.74260996926401E-16  -3.73193356413801E-17  -1.51920465508412E-13
      5.59809258675505E-17
      1.00000000000000E+04
      8.00000000000000E-01   0.00000000000000E+00  -7.17717475994513E+00   0.00000000000000E+00   5.80718329011124E-16
     -1.50027439617966E-15  -5.64229780316561E-16  -1.37953022605864E-16  -1.64885486948352E-17  -1.47287358963228E-15
     -5.64229782029219E-16   1.36728418957571E-12   6.03491094192578E-16   1.16513618185022E-16  -3.92613121611591E-17
     -1.65464270034285E-16  -1.64885469821974E-17   1.44026600400533E-16  -3.92613138737984E-17  -1.51920465508412E-13
      5.57498608556815E-17
      1.00000000000000E+04
      8.00000000000000E-01   0.00000000000000E+00  -7.67717475994513E+00  -1.51920465508412E-13   5.54650320894376E-16
     -1.18898216548516E-15  -5.40589267762359E-16  -1.06378650210271E-16  -1.40610531322399E-17  -1.16381601638187E-15
     -5.40589269365571E-16  -1.82304558610094E-12   5.82038825533871E-16   8.85975419392856E-17  -4.14495561670428E-17
     -1.31187365556000E-16  -1.40610515290301E-17   1.13409759523748E-16  -4.14495577702526E-17  -3.03840931016824E-13
      5.55106092989924E-17
      1.00000000000000E+04
      8.00000000000000E-01   0.00000000000000E+00  -8.17717475994513E+00  -9.11522793050471E-13   5.23826120583830E-16
     -8.14443175977708E-16  -5.12464879690120E-16  -7.07458277187094E-17  -1.13612408938559E-17  -7.90319232714541E-16
     -5.12464881124199E-16  -1.51920465508412E-12   5.56368369108696E-16   5.65991049739182E-17  -4.39034879827272E-17
     -9.48649632897826E-17  -1.13612394597871E-17   8.07180258491579E-17  -4.39034894167966E-17  -1.51920465508412E-13
      5.52647288763348E-17
      1.00000000000000E+04
      8.00000000000000E-01   0.00000000000000E+00  -8.67717475994513E+00  -6.07681862033647E-13   4.91896620822506E-16
     -4.46808368985935E-16  -4.83175701334977E-16  -3.75121154593410E-17  -8.72091948775243E-18  -4.22741318405780E-16
     -4.83175702500315E-16   7.59602327542059E-13   5.29496318022847E-16   2.64677176285636E-17  -4.63206155214121E-17
     -6.17462481801332E-17  -8.72091832241577E-18   5.07228734194217E-17  -4.63206166867486E-17   0.00000000000000E+00
      5.50415350096567E-17
      1.00000000000000E+04
      8.00000000000000E-01   0.00000000000000E+00  -9.17717475994513E+00  -1.51920465508412E-13   4.66979067268694E-16
     -2.08740565712681E-16  -4.60212526265240E-16  -1.67060605507085E-17  -6.76654100356889E-18  -1.84553822487800E-16
     -4.60212527107556E-16  -7.59602327542059E-13   5.08333935881546E-16   7.23117620864853E-18  -4.81214087727397E-17
     -4.06334638521290E-17  -6.76654016125134E-18   3.11531429182279E-17  -4.81214096150570E-17   3.03840931016824E-13
      5.48879497755355E-17
      1.00000000000000E+04
      8.00000000000000E-01   0.00000000000000E+00  -9.67717475994513E+00   6.07681862033647E-13   4.52673035161073E-16
     -1.08229429378512E-16  -4.46970846576743E-16  -7.98883709540276E-18  -5.70218858454172E-18  -8.64382326387575E-17
     -4.46970847138475E-16  -1.97496605160935E-12   4.96080637296698E-16  -2.46641348396052E-18  -4.91097901566372E-17
     -2.95771172719684E-17  -5.70218802280958E-18   1.91143665464497E-17  -4.91097907183693E-17  -7.59602327542059E-13
      5.48119787408584E-17
      1.00000000000000E+04
      8.00000000000000E-01   0.00000000000000E+00  -1.01771747599451E+01   3.03840931016824E-13   4.45737664125830E-16
     -7.33714925490096E-17  -4.40522883202418E-16  -4.80697948700104E-18  -5.21478092355337E-18  -5.86890162551775E-17
     -4.40522883559506E-16  -7.59602327542059E-13   4.90091325820699E-16  -1.30899464707037E-17  -4.95684422594421E-17
     -1.99881389474038E-17  -5.21478056646465E-18   2.07374745052378E-18  -4.95684426165309E-17  -1.51920465508412E-13
      5.47832231817621E-17
      1.00000000000000E+04
      8.00000000000000E-01   0.00000000000000E+00  -1.06771747599451E+01  -1.21536372406729E-12   4.42369912627165E-16
     -6.01732727203204E-17  -4.37378588315943E-16  -3.33091297768091E-18  -4.99132431141385E-18  -6.28050087985721E-17
     -4.37378588508084E-16  -1.51920465508412E-12   4.87162657473684E-16  -4.41445171862881E-17  -4.97840689646375E-17
     -6.50494780902449E-19  -4.99132411927284E-18  -4.68225492956568E-17  -4.97840691567785E-17   9.11522793050471E-13
      5.47753932759647E-17
      1.00000000000000E+04
      8.00000000000000E-01   0.00000000000000E+00  -1.11771747599451E+01   0.00000000000000E+00   4.40535280106228E-16
     -5.06919489182024E-17  -4.35660674274925E-16  -2.29995993924510E-18  -4.87460583147277E-18  -1.08841370486155E-16
     -4.35660674252826E-16   1.06344325855888E-12   4.85562137912103E-16  -1.52593498332323E-16  -4.99014636598854E-17
      5.59410960683208E-17  -4.87460585357138E-18  -2.10835905153414E-16  -4.99014636377868E-17  -1.51920465508412E-13
      5.47760694915984E-17
      1.00000000000000E+04
      8.00000000000000E-01   0.00000000000000E+00  -1.16771747599451E+01  -1.51920465508412E-13   4.39367079194774E-16
     -4.17358577152230E-17  -4.34566144210016E-16  -1.42268017249771E-18  -4.80093498488551E-18  -2.81613723302037E-16
     -4.34566143699789E-16  -1.97496605160935E-12   4.84545670643603E-16  -5.26376331976824E-16  -4.99795269433876E-17
      2.38454166122932E-16  -4.80093549511442E-18  -7.66269909335100E-16  -4.99795264331588E-17   1.51920465508412E-13
      5.47804619289519E-17
      1.00000000000000E+04
      8.00000000000000E-01   0.00000000000000E+00  -1.21771747599451E+01  -1.51920465508412E-13   4.38512125496749E-16
     -3.31982018162241E-17  -4.33766503333345E-16  -7.01696089659274E-19  -4.74562216354142E-18  -8.68107991704196E-16
     -4.33766501398234E-16  -4.55761396525235E-13   4.83807691835514E-16  -1.77386027182299E-15  -5.00411904368364E-17
      8.34140463776948E-16  -4.74562409865339E-18  -2.60869230727777E-15  -5.00411885017243E-17   1.51920465508412E-13
      5.47868126000726E-17
      1.00000000000000E+04
      8.00000000000000E-01   0.00000000000000E+00  -1.26771747599451E+01   3.03840931016824E-13   4.37821935396533E-16
     -2.64796014855755E-17  -4.33123111327285E-16  -1.62564249376075E-19  -4.69882406942670E-18  -2.76797167547513E-15
     -4.33123105044732E-16  -1.82304558610094E-12   4.83218755269478E-16  -5.79515098615856E-15  -5.00956502234445E-17
      2.74109522135859E-15  -4.69883035197948E-18  -8.53641077661006E-15  -5.00956439408917E-17   3.03840931016824E-13
      5.47944742924992E-17
      1.00000000000000E+04
      8.00000000000000E-01   0.00000000000000E+00  -1.31771747599451E+01   6.07681862033647E-13   4.37229793218730E-16
     -2.17463803796709E-17  -4.32573438978845E-16   2.32306867687413E-19  -4.65635423999694E-18  -8.68096177851397E-15
     -4.32573419641238E-16  -1.82304558610094E-12   4.82720272537721E-16  -1.83036321433344E-14  -5.01468528955498E-17
      8.65918803240082E-15  -4.65637357760518E-18  -2.69626063537802E-14  -5.01468335579416E-17  -1.51920465508412E-13
      5.48032071350756E-17
      1.00000000000000E+04
      8.00000000000000E-01   0.00000000000000E+00  -1.36771747599451E+01   9.11522793050471E-13   4.36703074728313E-16
     -1.84750566747023E-17  -4.32086810514257E-16   5.59063477579241E-19  -4.61626421416265E-18  -2.64134868463371E-14
     -4.32086753153808E-16   6.07681862033647E-13   4.82283406545713E-16  -5.58235981167151E-14  -5.01966533900789E-17
      2.63952661182936E-14  -4.61632157461056E-18  -8.22183273353398E-14  -5.01965960296311E-17   4.55761396525235E-13
      5.48129176042057E-17
      1.00000000000000E+04
      8.00000000000000E-01   0.00000000000000E+00  -1.41771747599451E+01   9.11522793050471E-13   4.36224295733090E-16
     -1.70534271063670E-17  -4.31646757133467E-16   9.19060551737683E-19  -4.57753859975956E-18  -7.76680767611231E-14
     -4.31646592784591E-16   4.40569349974394E-12   4.81892591573552E-16  -1.64281416906489E-13  -5.02459987879722E-17
      7.76518170578227E-14  -4.57770294863495E-18  -2.41932298550718E-13  -5.02458344390967E-17  -1.51920465508412E-13
      5.48235373875407E-17
      1.00000000000000E+04
      8.00000000000000E-01   0.00000000000000E+00  -1.46771747599451E+01  -1.51920465508412E-13   4.35783219849714E-16
     -1.60178434983986E-17  -4.31243649698637E-16   1.45986086990988E-18  -4.53957015119107E-18  -2.20382779114678E-13
     -4.31243194963782E-16   4.25377303423553E-12   4.81538537880191E-16  -4.66201489401261E-13  -5.02953429139948E-17
      2.20367869199235E-13  -4.54002488604668E-18  -6.86567902085966E-13  -5.02948881791392E-17   1.51920465508412E-13
      5.48349130660933E-17
      1.00000000000000E+04
      8.00000000000000E-01   0.00000000000000E+00  -1.51771747599451E+01   3.03840931016824E-13   4.35373377974750E-16
     -1.63128491415815E-17  -4.30871449828767E-16   2.45927507102531E-18  -4.50192814607707E-18  -6.02900573082146E-13
     -4.30870235700480E-16   4.55761396525235E-12   4.81214918861754E-16  -1.27491397784202E-12  -5.03446831614445E-17
      6.02886424892933E-13  -4.50314227436595E-18  -1.87779794285500E-12  -5.03434690331556E-17   1.21536372406729E-12
      5.48466113072191E-17
      1.00000000000000E+04
      8.00000000000000E-01   0.00000000000000E+00  -1.56771747599451E+01   1.97496605160935E-12   4.34990438459429E-16
     -1.84698043487109E-17  -4.30526205076407E-16   4.48705942859148E-18  -4.46423338309288E-18  -1.58884563322635E-12
     -4.30523079793737E-16   5.46913675830282E-12   4.80916350407061E-16  -3.35712871921761E-12  -5.03932706119248E-17
      1.58883154393681E-12  -4.46735866576419E-18  -4.94595575986622E-12  -5.03901453292534E-17   2.58264791364300E-12
      5.48575039942616E-17
      1.00000000000000E+04
      8.00000000000000E-01   0.00000000000000E+00  -1.61771747599451E+01  -3.03840931016824E-13   4.34631406669975E-16
     -2.46053964943157E-17  -4.30205348939173E-16   8.73843645306236E-18  -4.42605773092938E-18  -4.02963197107866E-12
     -4.30197601563164E-16   1.38247623612655E-11   4.80636438658997E-16  -8.50376419880686E-12  -5.04388370967430E-17
      4.02961623024532E-12  -4.43380510693877E-18  -1.25333716921920E-11  -5.04310897207337E-17   8.65946653397947E-12
      5.48648948277582E-17
      1.00000000000000E+04
      8.00000000000000E-01   0.00000000000000E+00  -1.66771747599451E+01   3.03840931016824E-13   4.34294234202884E-16
     -3.70323997899363E-17  -4.29907434518627E-16   1.75823528332621E-17  -4.38679968430268E-18  -9.82343634860845E-12
     -4.29888965292604E-16   3.40301842738842E-11   4.80364951415517E-16  -2.06947036378229E-11  -5.04759861214589E-17
      9.82341672949767E-12  -4.40526891032673E-18  -3.05181027783917E-11  -5.04575168954348E-17   2.00535014471104E-11
      5.48627858063021E-17
      1.00000000000000E+04
      8.00000000000000E-01   0.00000000000000E+00  -1.71771747599451E+01  -3.03840931016824E-13   4.33977664504822E-16
     -6.30891890332052E-17  -4.29632168193763E-16   3.51978169156115E-17  -4.34549631119928E-18  -2.29804141538291E-11
     -4.29589907329697E-16   7.15545392544620E-11   4.80083115782980E-16  -4.83017411474010E-11  -5.04932084519442E-17
      2.29803861974027E-11  -4.38775717526441E-18  -7.12820921451423E-11  -5.04509475878792E-17   4.86145489626918E-11
      5.48387047628525E-17
      1.00000000000000E+04
      8.00000000000000E-01   0.00000000000000E+00  -1.76771747599451E+01   4.55761396525235E-13   4.33681243997673E-16
     -1.11083193167165E-16  -4.29380701949239E-16   6.73651845416395E-17  -4.30054204851353E-18  -5.14690042214871E-11
     -4.29288138025644E-16   1.60428011576883E-10   4.79756116690648E-16  -1.07863192010109E-10  -5.04679786638202E-17
      5.14689604439131E-11  -4.39310597210858E-18  -1.59332085102619E-10  -5.03754147402252E-17   1.07863530510972E-10
      5.47685207113748E-17
      1.00000000000000E+04
      8.00000000000000E-01   0.00000000000000E+00  -1.81771747599451E+01   4.55761396525235E-13   4.33405455287800E-16
     -1.87830180553306E-16  -4.29156129276412E-16   1.17959134425215E-16  -4.24932601147524E-18  -1.10005928570015E-10
     -4.28962813796964E-16   3.42276808790452E-10   4.79322877852516E-16  -2.29676455910976E-10  -5.03600640556494E-17
      1.10005858715898E-10  -4.44264149092346E-18  -3.39682196664254E-10  -5.01667485762014E-17   2.29703743848719E-10
      5.46093900672136E-17
      1.00000000000000E+04
      8.00000000000000E-01   0.00000000000000E+00  -1.86771747599451E+01   1.97496605160935E-12   4.33151891197870E-16
     -2.84509745076759E-16  -4.28963977855558E-16   1.80552148161001E-16  -4.18791334235963E-18  -2.23378382177423E-10
     -4.28581096444856E-16   6.89718913408190E-10   4.78686539538154E-16  -4.64176495420699E-10  -5.01054430937908E-17
      2.23378278065008E-10  -4.57079475306121E-18  -6.87554592929064E-10  -4.97225616830894E-17   4.64572783524723E-10
      5.42933564355082E-17
      1.00000000000000E+04
      8.00000000000000E-01   0.00000000000000E+00  -1.91771747599451E+01   7.59602327542059E-13   4.32923282172040E-16
     -3.71206388665916E-16  -4.28812180576965E-16   2.33892165496445E-16  -4.11110159513287E-18  -4.28528293304510E-10
     -4.28097972689478E-16   1.31715043595793E-09   4.77715632900183E-16  -8.85188609499339E-10  -4.96176602107273E-17
      4.28528155608066E-10  -4.82530948261937E-18  -1.31371653123107E-09  -4.89034523232405E-17   8.84784791120990E-10
      5.37287618059008E-17
      1.00000000000000E+04
      8.00000000000000E-01   0.00000000000000E+00  -1.96771747599451E+01  -3.03840931016824E-13   4.32723074543236E-16
     -4.16446423205059E-16  -4.28709719879255E-16   2.56412149808365E-16  -4.01335466410302E-18  -7.71859577269530E-10
     -4.27464603477467E-16   2.35522297677691E-09   4.76271899806275E-16  -1.58265110372236E-09  -4.88072963281772E-17
      7.71859417227906E-10  -5.25847106589188E-18  -2.35451026454491E-09  -4.75621799263897E-17   1.58255548920113E-09
      5.28206509915364E-17
      1.00000000000000E+04
      8.00000000000000E-01   0.00000000000000E+00  -2.01771747599451E+01   1.51920465508412E-13   4.32554340255405E-16
     -4.14053113328318E-16  -4.28663482306541E-16   2.46054895947879E-16  -3.89085794898949E-18  -1.29836455832021E-09
     -4.26648077031157E-16   3.93504389759888E-09   4.74272118599983E-16  -2.63839338847020E-09  -4.76240415682307E-17
      1.29836439018477E-09  -5.90626322437433E-18  -3.93675753261694E-09  -4.56086362928466E-17   2.63809888355357E-09
      5.15148995171470E-17
      1.00000000000000E+04
      8.00000000000000E-01   0.00000000000000E+00  -2.06771747599451E+01   3.03840931016824E-13   4.32418297833507E-16
     -3.84050076490187E-16  -4.28674373407676E-16   2.17379447001002E-16  -3.74392442591274E-18  -2.03448580985995E-09
     -4.25654436586058E-16   6.12512932836815E-09   4.71756489708396E-16  -4.09057876933563E-09  -4.61020531223688E-17
      2.03448564327416E-09  -6.76386124753018E-18  -6.12506419521007E-09  -4.30821163007570E-17   4.09045853381399E-09
      4.98459775486175E-17
      1.00000000000000E+04
      8.00000000000000E-01   0.00000000000000E+00  -2.11771747599451E+01   3.03840931016824E-13   4.32313341511697E-16
     -3.46334874321370E-16  -4.28735367236756E-16   1.85159204146808E-16  -3.57797427502530E-18  -2.97486891565638E-09
     -4.24535940045017E-16   8.88506842525946E-09   4.68904343543333E-16  -5.90932403040186E-09  -4.43684034977350E-17
      2.97486875466268E-09  -7.77740146676219E-18  -8.88419259988010E-09  -4.01689763060064E-17   5.90970610827722E-09
      4.79463777728638E-17
      1.00000000000000E+04
      8.00000000000000E-01   0.00000000000000E+00  -2.16771747599451E+01   1.51920465508412E-13   4.32235339388302E-16
     -3.10309170346450E-16  -4.28833362060120E-16   1.55996784664710E-16  -3.40197732823209E-18  -4.08353598496690E-09
     -4.23372215623454E-16   1.20878556791078E-08   4.65969118395956E-16  -8.00440820538668E-09  -4.25969027722238E-17
      4.08353583048980E-09  -8.86312376490032E-18  -1.20879438799008E-08  -3.71357563355509E-17   8.00408164577618E-09
      4.59988801001525E-17
      1.00000000000000E+04
      8.00000000000000E-01   0.00000000000000E+00  -2.21771747599451E+01   1.06344325855888E-12   4.32178945828723E-16
     -2.76948146424493E-16  -4.28953548668971E-16   1.30804442909596E-16  -3.22539715991631E-18  -5.30839633146744E-09
     -4.22239271364239E-16   1.55678977825090E-08   4.63180735169634E-16  -1.02596129527105E-08  -4.09414638050715E-17
      5.30839618520992E-09  -9.93967446464778E-18  -1.55680090071076E-08  -3.42271865003485E-17   1.02597967176451E-08
      4.41668609646081E-17
      1.00000000000000E+04
      8.00000000000000E-01   0.00000000000000E+00  -2.26771747599451E+01   4.55761396525235E-13   4.32138969312057E-16
     -2.45924407568703E-16  -4.29083259232333E-16   1.09220983525538E-16  -3.05571007983429E-18  -6.59794478877322E-09
     -4.21188679776392E-16   1.91653744057482E-08   4.60684936781154E-16  -1.25682440697564E-08  -3.94962570048454E-17
      6.59794465214723E-09  -1.09502895357706E-17  -1.91661886126586E-08  -3.16016775489181E-17   1.25686839524419E-08
      4.25519670841585E-17
      1.00000000000000E+04
      8.00000000000000E-01   0.00000000000000E+00  -2.31771747599451E+01   4.55761396525235E-13   4.32111142425648E-16
     -2.17456800695387E-16  -4.29213625512714E-16   9.10650506198707E-17  -2.89751691306458E-18  -7.91128130769201E-09
     -4.20244346247428E-16   2.27634587108494E-08   4.58538909891290E-16  -1.48519309234194E-08  -3.82945636419666E-17
      7.91128118121675E-09  -1.18667961783501E-17  -2.27632120135633E-08  -2.93252843766865E-17   1.48518966285678E-08
      4.11920805543359E-17
      1.00000000000000E+04
      8.00000000000000E-01   0.00000000000000E+00  -2.36771747599451E+01  -9.11522793050471E-13   4.32092285143666E-16
     -1.92737603804592E-16  -4.29339402362664E-16   7.61402130195968E-17  -2.75288278115513E-18  -9.22050247967027E-09
     -4.19409791034315E-16   2.62851270217999E-08   4.56738033814560E-16  -1.70626628783299E-08  -3.73282427788325E-17
      9.22050236318373E-09  -1.26824941095107E-17  -2.62831651654106E-08  -2.73986314504708E-17   1.70629470835773E-08
      4.00811255598808E-17
      1.00000000000000E+04
      8.00000000000000E-01   0.00000000000000E+00  -2.41771747599451E+01  -1.51920465508412E-13   4.32080144959306E-16
     -1.71607496341243E-16  -4.29458014192000E-16   6.40625933825011E-17  -2.62213076745742E-18  -1.05087581163788E-08
     -4.18677222206928E-16   2.96852589603437E-08   4.55245894934676E-16  -1.91763286857791E-08  -3.65686727271077E-17
      1.05087580089453E-08  -1.34029227525231E-17  -2.96850866306311E-08  -2.57878807420560E-17   1.91760088383338E-08
      3.91908034942679E-17
      1.00000000000000E+04
      8.00000000000000E-01   0.00000000000000E+00  -2.46771747599451E+01   9.11522793050471E-13   4.32073153242081E-16
     -1.53518485626908E-16  -4.29568567092592E-16   5.43389204156743E-17  -2.50458614964457E-18  -1.17670835682483E-08
     -4.18034251959266E-16   3.29527643324986E-08   4.54015365121661E-16  -2.11846506613402E-08  -3.59811131618175E-17
      1.17670834687544E-08  -1.40389012829739E-17  -3.29517340757756E-08  -2.44467980284843E-17   2.11845493128205E-08
      3.84856993100025E-17
      1.00000000000000E+04
      8.00000000000000E-01   0.00000000000000E+00  -2.51771747599451E+01   1.06344325855888E-12   4.32070210648179E-16
     -1.38822477503008E-16  -4.29671107305139E-16   4.64865799164958E-17  -2.39910334320237E-18  -1.29915739157812E-08
     -4.17467746346065E-16   3.60824778424374E-08   4.53000026852252E-16  -2.30886187647552E-08  -3.55322805055528E-17
      1.29915738235508E-08  -1.46024643022861E-17  -3.60801925418710E-08  -2.33289195464574E-17   2.30887204275029E-08
      3.79313838485117E-17
      1.00000000000000E+04
      8.00000000000000E-01   0.00000000000000E+00  -2.56771747599451E+01   9.11522793050471E-13   4.32070530145828E-16
     -1.25796709044370E-16  -4.29766145288575E-16   4.00976948857958E-17  -2.30438485742973E-18  -1.41813338591503E-08
     -4.16965624109022E-16   3.90762225357461E-08   4.52159036615230E-16  -2.48940339575999E-08  -3.51934125065587E-17
      1.41813337729583E-08  -1.51049060369858E-17  -3.90753676904835E-08  -2.23928913269988E-17   2.48936874782084E-08
      3.74977973625546E-17
      1.00000000000000E+04
      8.00000000000000E-01   0.00000000000000E+00  -2.61771747599451E+01   3.03840931016824E-13   4.32073531521887E-16
     -1.15405857458076E-16  -4.29854378816460E-16   3.48487654270455E-17  -2.21915270558000E-18  -1.53371387428781E-08
     -4.16517486123426E-16   4.19440251631484E-08   4.51458418762429E-16  -2.66087874507896E-08  -3.49409326358320E-17
      1.53371386623243E-08  -1.55560453986126E-17  -4.19459260782673E-08  -2.16040399427998E-17   2.66087176133328E-08
      3.71600853406122E-17
      1.00000000000000E+04