DF-ISE text

Info {
  version   = 1.0
  type      = xyplot
  datasets  = [
    "frequency"
    "v(Ntop)" "v(Ptop)" "v(Pbot)" "a(Ntop,Ntop)" "c(Ntop,Ntop)"
    "a(Ntop,Ptop)" "c(Ntop,Ptop)" "a(Ntop,Pbot)" "c(Ntop,Pbot)" "a(Ptop,Ntop)"
    "c(Ptop,Ntop)" "a(Ptop,Ptop)" "c(Ptop,Ptop)" "a(Ptop,Pbot)" "c(Ptop,Pbot)"
    "a(Pbot,Ntop)" "c(Pbot,Ntop)" "a(Pbot,Ptop)" "c(Pbot,Ptop)" "a(Pbot,Pbot)"
    "c(Pbot,Pbot)" ]
  functions = [
    Frequency
    Voltage Voltage Voltage Admittance Capacitance
    Admittance Capacitance Admittance Capacitance Admittance
    Capacitance Admittance Capacitance Admittance Capacitance
    Admittance Capacitance Admittance Capacitance Admittance
    Capacitance ]
}

Data {
      1.00000000000000E+04
      8.00000000000000E-01   0.00000000000000E+00  -5.00000000000000E-02  -1.51920465508412E-13   9.43133677445219E-16
     -2.96476308722558E-15  -8.37954618177527E-16  -1.53796366791611E-15  -1.05179059267830E-16  -2.96616759146378E-15
     -8.37954618606618E-16  -2.43072744813459E-12   8.37971505542244E-16   5.88414431341004E-16  -1.68869341026289E-20
     -1.53646340688644E-15  -1.05179058838767E-16   5.86914707572114E-16  -1.68873631704177E-20   4.55761396525235E-13
      1.05195946201694E-16
      1.00000000000000E+04
      8.00000000000000E-01   0.00000000000000E+00  -1.45555555555556E-01   1.51920465508412E-13   9.38982178337322E-16
     -2.94228011002753E-15  -8.37935760716905E-16  -1.42378347005966E-15  -1.01046417620518E-16  -2.94351125962454E-15
     -8.37935761174361E-16  -1.36728418957571E-12   8.37959346823093E-16   5.65408681341944E-16  -2.35856477072939E-20
     -1.42241960685184E-15  -1.01046417163061E-16   5.64045301931509E-16  -2.35861051646849E-20   4.55761396525235E-13
      1.01070003268562E-16
      1.00000000000000E+04
      8.00000000000000E-01   0.00000000000000E+00  -3.28172839506173E-01   0.00000000000000E+00   9.32228384157334E-16
     -2.90624526020529E-15  -8.37878286243439E-16  -1.24843787861218E-15  -9.43500979140715E-17  -2.90711322041094E-15
     -8.37878286748063E-16  -1.51920465508412E-13   8.37921606738382E-16   5.28227424163714E-16  -4.33199885517074E-20
     -1.24743697598919E-15  -9.43500974094562E-17   5.27230954809627E-16  -4.33204931712689E-20   1.51920465508412E-13
      9.43934179024753E-17
      1.00000000000000E+04
      8.00000000000000E-01   0.00000000000000E+00  -6.77174759945130E-01  -3.03840931016824E-13   9.22169209419379E-16
     -2.85743575536231E-15  -8.37621425132370E-16  -1.01602163862649E-15  -8.45477842871549E-17  -2.85726072839335E-15
     -8.37621425711374E-16  -7.59602327542059E-13   8.37747647194811E-16   4.74262502037357E-16  -1.26221481222015E-19
     -1.01639279232985E-15  -8.45477837081450E-17   4.74625887843330E-16  -1.26222060227179E-19   0.00000000000000E+00
      8.46740057676162E-17
      1.00000000000000E+04
      8.00000000000000E-01   0.00000000000000E+00  -1.17717475994513E+00   4.55761396525235E-13   9.10836680261084E-16
     -2.82367291239892E-15  -8.36375441299697E-16  -8.06491297351128E-16  -7.44612389615258E-17  -2.81784995085020E-15
     -8.36375441987113E-16   3.03840931016824E-13   8.36865907273665E-16   4.20032153479005E-16  -4.90465284896972E-19
     -8.12434960292585E-16  -7.44612382741156E-17   4.25980066951141E-16  -4.90465972308870E-19   4.55761396525235E-13
      7.49517042459905E-17
      1.00000000000000E+04
      8.00000000000000E-01   0.00000000000000E+00  -1.67717475994513E+00   3.03840931016824E-13   8.99123360908734E-16
     -2.82043244488871E-15  -8.32187574334133E-16  -6.67158188619993E-16  -6.69357865746305E-17  -2.79878207410319E-15
     -8.32187575208160E-16   1.51920465508412E-13   8.33734524533424E-16   3.80266534428257E-16  -1.54694932395957E-18
     -6.88870974814222E-16  -6.69357857006124E-17   4.01982121920654E-16  -1.54695019797862E-18  -9.11522793050471E-13
      6.84827358986979E-17
      1.00000000000000E+04
      8.00000000000000E-01   0.00000000000000E+00  -2.17717475994513E+00   7.59602327542059E-13   8.80964928321494E-16
     -2.78379698962862E-15  -8.20627039477510E-16  -5.54454227473528E-16  -6.03378888440393E-17  -2.72826074432303E-15
     -8.20627040702311E-16   1.51920465508412E-13   8.24589750102130E-16   3.39900141950933E-16  -3.96270939851634E-18
     -6.10045602724750E-16  -6.03378876192435E-17   3.95490653761946E-16  -3.96271062331261E-18   4.55761396525235E-13
      6.43005982428754E-17
      1.00000000000000E+04
      8.00000000000000E-01   0.00000000000000E+00  -2.67717475994513E+00   0.00000000000000E+00   8.48712437798482E-16
     -2.56038049916892E-15  -7.95408283339424E-16  -4.44117565434999E-16  -5.33041544592270E-17  -2.44726706246553E-15
     -7.95408285113579E-16  -9.11522793050471E-13   8.03666264657121E-16   2.79736556428909E-16  -8.25797954206948E-18
     -5.57045673086712E-16  -5.33041526850755E-17   3.92661726474599E-16  -8.25798131622138E-18  -1.51920465508412E-13
      6.15621340011642E-17
      1.00000000000000E+04
      8.00000000000000E-01   0.00000000000000E+00  -3.17717475994513E+00  -1.51920465508412E-13   8.02014275351923E-16
     -2.07602038858807E-15  -7.56127720861948E-16  -3.24434351724307E-16  -4.58865544901360E-17  -1.89863101967433E-15
     -7.56127723132540E-16   1.36728418957571E-12   7.70006901063282E-16   2.00052290228258E-16  -1.38791779288371E-17
     -5.01969993091675E-16  -4.58865522195518E-17   3.77595401106048E-16  -1.38791801994221E-17  -4.55761396525235E-13
      5.97657324186434E-17
      1.00000000000000E+04
      8.00000000000000E-01   0.00000000000000E+00  -3.67717475994513E+00   1.51920465508412E-13   7.54891928408025E-16
     -1.56794386717606E-15  -7.15358525329912E-16  -2.22662517709548E-16  -3.95334030782827E-17  -1.35823488735902E-15
     -7.15358527669144E-16   1.36728418957571E-12   7.34450871414884E-16   1.33128336377227E-16  -1.90923437437091E-17
     -4.32451105392934E-16  -3.95334007390609E-17   3.42927485139207E-16  -1.90923460829315E-17   1.51920465508412E-13
      5.86257468216243E-17
      1.00000000000000E+04
      8.00000000000000E-01   0.00000000000000E+00  -4.17717475994513E+00  -4.55761396525235E-13   7.18864312090308E-16
     -1.23436854905128E-15  -6.83829486582159E-16  -1.60028289667992E-16  -3.50348255082920E-17  -1.03552003518302E-15
     -6.83829488570623E-16   1.51920465508412E-13   7.06720568677742E-16   9.56951977845911E-17  -2.28910801042750E-17
     -3.58884589099339E-16  -3.50348235198310E-17   2.94547506991078E-16  -2.28910820927362E-17  -1.51920465508412E-13
      5.79259056125604E-17
      1.00000000000000E+04
      8.00000000000000E-01   0.00000000000000E+00  -4.67717475994513E+00  -3.03840931016824E-13   6.92977062800760E-16
     -1.00438975595169E-15  -6.61067784308703E-16  -1.20856642663265E-16  -3.19092784921616E-17  -8.49453523424158E-16
     -6.61067785735337E-16  -1.06344325855888E-12   6.86628565858383E-16   7.50680725493986E-17  -2.55607801216614E-17
     -2.75800131818440E-16  -3.19092770655301E-17   2.30020757106332E-16  -2.55607815482929E-17   0.00000000000000E+00
      5.74700586134311E-17
      1.00000000000000E+04
      8.00000000000000E-01   0.00000000000000E+00  -5.17717475994513E+00  -1.21536372406729E-12   6.73112947567471E-16
     -8.13712108434469E-16  -6.43565291855017E-16  -9.33031488576942E-17  -2.95476557125380E-17  -7.09721619702571E-16
     -6.43565292768212E-16   1.51920465508412E-13   6.71155375734904E-16   6.05957483580276E-17  -2.75900829648895E-17
     -1.97440723613659E-16  -2.95476547993502E-17   1.64729436416857E-16  -2.75900838780779E-17   0.00000000000000E+00
      5.71377386764743E-17
      1.00000000000000E+04
      8.00000000000000E-01   0.00000000000000E+00  -5.67717475994513E+00  -4.55761396525235E-13   6.56577774799498E-16
     -6.72452156195561E-16  -6.28978149985833E-16  -7.46237490679472E-17  -2.75996248138039E-17  -6.04925655646698E-16
     -6.28978150576920E-16  -1.67112512059253E-12   6.58249331591180E-16   5.01597197529209E-17  -2.92711810136687E-17
     -1.42220605481607E-16  -2.75996242227201E-17   1.17765324677647E-16  -2.92711816047525E-17  -1.51920465508412E-13
      5.68708058271780E-17
      1.00000000000000E+04
      8.00000000000000E-01   0.00000000000000E+00  -6.17717475994513E+00  -1.51920465508412E-13   6.41952090464354E-16
     -5.75146863778472E-16  -6.16062490380188E-16  -6.22095144561586E-17  -2.58896000843159E-17  -5.28950554459975E-16
     -6.16062490799550E-16  -1.67112512059253E-12   6.46814922590203E-16   4.26609158999946E-17  -3.07524317887949E-17
     -1.08472271532137E-16  -2.58895996649600E-17   8.89293532445625E-17  -3.07524322081511E-17   4.55761396525235E-13
      5.66420318726019E-17
      1.00000000000000E+04
      8.00000000000000E-01   0.00000000000000E+00  -6.67717475994513E+00  -3.03840931016824E-13   6.28463270069357E-16
     -5.04828678523047E-16  -6.04137570246643E-16  -5.33582466000830E-17  -2.43256998228153E-17  -4.70764886573269E-16
     -6.04137570571489E-16  -2.73456837915141E-12   6.36249690811650E-16   3.68904081218649E-17  -3.21121202391305E-17
     -8.73794934528329E-17  -2.43256994979766E-17   7.09126533901078E-17  -3.21121205639697E-17   6.07681862033647E-13
      5.64378200616464E-17
      1.00000000000000E+04
      8.00000000000000E-01   0.00000000000000E+00  -7.17717475994513E+00  -9.11522793050471E-13   6.15636661087023E-16
     -4.49487293077177E-16  -5.92782117386131E-16  -4.64412071921416E-17  -2.28545437010313E-17  -4.22761192349825E-16
     -5.92782117653711E-16  -4.55761396525235E-13   6.26178298975162E-16   3.21163160806227E-17  -3.33961813195837E-17
     -7.31089095482702E-17  -2.28545434334551E-17   5.87880865159425E-17  -3.33961815871603E-17   4.55761396525235E-13
      5.62507250198952E-17
      1.00000000000000E+04
      8.00000000000000E-01   0.00000000000000E+00  -7.67717475994513E+00  -4.55761396525235E-13   6.03132385229594E-16
     -4.03619549672646E-16  -5.81691335361668E-16  -4.06269484899604E-17  -2.14410498680751E-17  -3.81472849497201E-16
     -5.81691335591298E-16  -4.55761396525235E-13   6.16326556292585E-16   2.79523049396084E-17  -3.46352207000265E-17
     -6.27164212536351E-17  -2.14410496384496E-17   5.00450593866969E-17  -3.46352209296522E-17   4.55761396525235E-13
      5.60762705674560E-17
      1.00000000000000E+04
      8.00000000000000E-01   0.00000000000000E+00  -8.17717475994513E+00   0.00000000000000E+00   5.90665765033587E-16
     -3.63351793645985E-16  -5.70606708041281E-16  -3.55083672988262E-17  -2.00590569924622E-17  -3.44043907569349E-16
     -5.70606708244037E-16   7.59602327542059E-13   6.06459172585971E-16   2.41768039821061E-17  -3.58524643395378E-17
     -5.47616381970618E-17  -2.00590567897063E-17   4.34260271869653E-17  -3.58524645422936E-17   4.55761396525235E-13
      5.59115213306682E-17
      1.00000000000000E+04
      8.00000000000000E-01   0.00000000000000E+00  -8.67717475994513E+00  -3.03840931016824E-13   5.77963255420739E-16
     -3.26426686810311E-16  -5.59276678963339E-16  -3.08764195578850E-17  -1.86865764575465E-17  -3.08812130445422E-16
     -5.59276679145860E-16   9.11522793050471E-13   5.96344491989347E-16   2.06244656374764E-17  -3.70678128426435E-17
     -4.84104699287571E-17  -1.86865762750327E-17   3.81466707125313E-17  -3.70678130251577E-17  -4.55761396525235E-13
      5.57543893003975E-17
      1.00000000000000E+04
      8.00000000000000E-01   0.00000000000000E+00  -9.17717475994513E+00  -4.55761396525235E-13   5.64737091301576E-16
     -2.91212625554759E-16  -5.47433596982788E-16  -2.65600312536264E-17  -1.73034943189462E-17  -2.75140428897092E-16
     -5.47433597148249E-16   6.07681862033647E-13   5.85733409897591E-16   1.70976155535258E-17  -3.82998127461605E-17
     -4.27913603595066E-17  -1.73034941534901E-17   3.33415200028502E-17  -3.82998129116168E-17  -1.51920465508412E-13
      5.56033070641103E-17
      1.00000000000000E+04
      8.00000000000000E-01   0.00000000000000E+00  -9.67717475994513E+00  -1.51920465508412E-13   5.50681751793913E-16
     -2.56796903152546E-16  -5.34790068815771E-16  -2.24804646921058E-17  -1.58916829782179E-17  -2.41859952195798E-16
     -5.34790068964797E-16  -3.03840931016824E-13   5.74355573857562E-16   1.31636149315842E-17  -3.95655048921735E-17
     -3.72513298475212E-17  -1.58916828291953E-17   2.79258769591078E-17  -3.95655050411962E-17  -4.55761396525235E-13
      5.54571878696412E-17
      1.00000000000000E+04
      8.00000000000000E-01   0.00000000000000E+00  -1.01771747599451E+01   1.51920465508412E-13   5.35516442697298E-16
     -2.21192689197873E-16  -5.21077328115317E-16  -1.85841631281768E-17  -1.44391145820742E-17  -2.09997303561659E-16
     -5.21077328243239E-16   1.67112512059253E-12   5.61953952584441E-16   7.48379995288588E-18  -4.08766243391081E-17
     -3.01131855161633E-17  -1.44391144541555E-17   1.90073125776231E-17  -4.08766244670268E-17   1.51920465508412E-13
      5.53157389202563E-17
      1.00000000000000E+04
      8.00000000000000E-01   0.00000000000000E+00  -1.06771747599451E+01   9.11522793050471E-13   5.19122097481980E-16
     -1.85224173724847E-16  -5.06171323908243E-16  -1.48241825398085E-17  -1.29507735738790E-17  -1.84120884463295E-16
     -5.06171323995671E-16   1.06344325855888E-12   5.48400791193958E-16  -4.50266872754387E-18  -4.22294671957902E-17
     -1.61147380420578E-17  -1.29507734864487E-17  -3.22763902469796E-18  -4.22294672832207E-17   4.55761396525235E-13
      5.51802407687900E-17
      1.00000000000000E+04
      8.00000000000000E-01   0.00000000000000E+00  -1.11771747599451E+01   0.00000000000000E+00   5.01808916349236E-16
     -1.49042574331940E-16  -4.90342188232847E-16  -1.12866222063890E-17  -1.14667281165261E-17  -1.80102477628718E-16
     -4.90342188221057E-16   4.55761396525235E-13   5.33930087816099E-16  -3.88022731983753E-17  -4.35878995929238E-17
      1.99696332289449E-17  -1.14667281283185E-17  -7.00562461459059E-17  -4.35878995811314E-17  -1.51920465508412E-13
      5.50546277083902E-17
      1.00000000000000E+04
      8.00000000000000E-01   0.00000000000000E+00  -1.16771747599451E+01   1.51920465508412E-13   4.84585285631071E-16
     -1.15417101551836E-16  -4.74510841424918E-16  -8.19797235111218E-18  -1.00744442062741E-17  -2.47169751415179E-16
     -4.74510841145136E-16   1.21536372406729E-12   5.19382113452771E-16  -1.50989096020377E-16  -4.48712723059141E-17
      1.23678309382234E-16  -1.00744444860585E-17  -2.82859039371157E-16  -4.48712720261298E-17   0.00000000000000E+00
      5.49457165122894E-17
      1.00000000000000E+04
      8.00000000000000E-01   0.00000000000000E+00  -1.21771747599451E+01   3.03840931016824E-13   4.69002536419697E-16
     -8.79325706835419E-17  -4.60117096149047E-16  -5.79451986682842E-18  -8.88544027074705E-18  -5.25266639966510E-16
     -4.60117095119399E-16  -1.51920465508412E-13   5.06092304459614E-16  -5.28066497988131E-16  -4.59752093388814E-17
      4.31621362109339E-16  -8.88544130039613E-18  -9.65479865258819E-16  -4.59752083092324E-17   1.51920465508412E-13
      5.48606496087331E-17
      1.00000000000000E+04
      8.00000000000000E-01   0.00000000000000E+00  -1.26771747599451E+01   4.55761396525235E-13   4.56357168748075E-16
     -6.82468957022965E-17  -4.48384627149720E-16  -4.13041954116911E-18  -7.97254159840167E-18  -1.42840990540709E-15
     -4.48384623977450E-16   6.07681862033647E-13   4.95214352356184E-16  -1.77764737035901E-15  -4.68297283769529E-17
      1.35583268031221E-15  -7.97254477067121E-18  -3.13762223464286E-15  -4.68297252046835E-17  -1.51920465508412E-13
      5.48022699752563E-17
      1.00000000000000E+04
      8.00000000000000E-01   0.00000000000000E+00  -1.31771747599451E+01   0.00000000000000E+00   4.46981511306494E-16
     -5.57993666157455E-17  -4.39651740538774E-16  -3.03665875894119E-18  -7.32977076785157E-18  -4.19172926656412E-15
     -4.39651731173295E-16  -4.55761396525235E-13   4.87089308130685E-16  -5.80215586635999E-15  -4.74375769552575E-17
      4.13284729232932E-15  -7.32978013333101E-18  -9.93802809380809E-15  -4.74375675897780E-17  -3.03840931016824E-13
      5.47673477228916E-17
      1.00000000000000E+04
      8.00000000000000E-01   0.00000000000000E+00  -1.36771747599451E+01   3.03840931016824E-13   4.40369805632779E-16
     -4.77216690946460E-17  -4.33473110757938E-16  -2.27092486833138E-18  -6.89669487495915E-18  -1.24484496066531E-14
     -4.33473083537657E-16  -1.97496605160935E-12   4.81325887463993E-16  -1.83376679885270E-14  -4.78528039249400E-17
      1.23986290911539E-14  -6.89672209523980E-18  -3.07385695441637E-14  -4.78527767046593E-17   0.00000000000000E+00
      5.47494988005429E-17
      1.00000000000000E+04
      8.00000000000000E-01   0.00000000000000E+00  -1.41771747599451E+01  -3.03840931016824E-13   4.35747461831803E-16
     -4.20845940207525E-17  -4.29142851936808E-16  -1.63771059052449E-18  -6.60460989507706E-18  -3.65725779084889E-14
     -4.29142774041953E-16  -3.03840931016824E-13   4.77280908898241E-16  -5.60248812384952E-14  -4.81381348554307E-17
      3.65288446359901E-14  -6.60468778993189E-18  -9.25553788472343E-14  -4.81380569605759E-17  -1.51920465508412E-13
      5.47427447507367E-17
      1.00000000000000E+04
      8.00000000000000E-01   0.00000000000000E+00  -1.46771747599451E+01  -9.11522793050471E-13   4.32448221589924E-16
     -3.82635239168434E-17  -4.26047496296457E-16  -9.93599072963984E-19  -6.40072529356124E-18  -1.05158927025933E-13
     -4.26047278066367E-16   3.79801163771029E-12   4.74389438286819E-16  -1.65259219214574E-13  -4.83421602182533E-17
      1.05120079541720E-13  -6.40094352365121E-18  -2.70380287388592E-13  -4.83419419881633E-17  -1.51920465508412E-13
      5.47428855122385E-17
      1.00000000000000E+04
      8.00000000000000E-01   0.00000000000000E+00  -1.51771747599451E+01  -1.51920465508412E-13   4.30007719415560E-16
     -3.47973327145772E-17  -4.23756948957302E-16  -1.83283654843620E-19  -6.25077045836136E-18  -2.94104026077854E-13
     -4.23756353591178E-16   3.19032977567665E-12   4.72252840063160E-16  -4.70191933431739E-13  -4.84964864706365E-17
      2.94069177420742E-13  -6.25136582448709E-18  -7.64261286868667E-13  -4.84958911045107E-17   1.51920465508412E-13
      5.47472569289569E-17
      1.00000000000000E+04
      8.00000000000000E-01   0.00000000000000E+00  -1.56771747599451E+01  -6.07681862033647E-13   4.28129198695476E-16
     -3.28542759024105E-17  -4.21995227782035E-16   1.05649146992092E-18  -6.13397091350780E-18  -7.96901429649505E-13
     -4.21993652409887E-16   7.29218234440377E-12   4.70613670633856E-16  -1.28918881688136E-12  -4.86200182222663E-17
      7.96869779164964E-13  -6.13554628565776E-18  -2.08605754695571E-12  -4.86184428501164E-17   9.11522793050471E-13
      5.47539891366799E-17
      1.00000000000000E+04
      8.00000000000000E-01   0.00000000000000E+00  -1.61771747599451E+01   0.00000000000000E+00   4.26628080179196E-16
     -3.29515825871281E-17  -4.20590197854958E-16   3.27923217827088E-18  -6.03788232431570E-18  -2.08622668581544E-12
     -4.20586166656459E-16   6.98834141338694E-12   4.69309426374572E-16  -3.40309225976630E-12  -4.87232597170324E-17
      2.08619708674828E-12  -6.04191352281552E-18  -5.48928605057316E-12  -4.87192285185325E-17   3.49417070669347E-12
      5.47611420412129E-17
      1.00000000000000E+04
      8.00000000000000E-01   0.00000000000000E+00  -1.66771747599451E+01   3.03840931016824E-13   4.25389169501513E-16
     -3.71247077574940E-17  -4.19434341667874E-16   7.66068301608179E-18  -5.95482783372563E-18  -5.26530922231836E-12
     -4.19424389852322E-16   1.42805237577907E-11   4.68235112223129E-16  -8.63896145401992E-12  -4.88107223706789E-17
      5.26527992113252E-12  -5.96477964927813E-18  -1.39042336951485E-11  -4.88007705551263E-17   8.65946653397947E-12
      5.47655502044096E-17
      1.00000000000000E+04
      8.00000000000000E-01   0.00000000000000E+00  -1.71771747599451E+01   1.51920465508412E-13   4.24339317046785E-16
     -4.88050141045812E-17  -4.18459630810215E-16   1.65347024749697E-17  -5.87968623663193E-18  -1.27851998893088E-11
     -4.18435982133171E-16   3.73724345150693E-11   4.67317222097099E-16  -2.10605797342921E-11  -4.88812399621492E-17
      1.27851675352714E-11  -5.90333491367705E-18  -3.38457307535180E-11  -4.88575912851041E-17   2.12688651711777E-11
      5.47609261987344E-17
      1.00000000000000E+04
      8.00000000000000E-01   0.00000000000000E+00  -1.76771747599451E+01  -1.51920465508412E-13   4.23431148482922E-16
     -7.49926214691394E-17  -4.17622667806880E-16   3.39584788893158E-17  -5.80848067609054E-18  -2.98017465857554E-11
     -4.17568710460393E-16   8.23408923055592E-11   4.66494827906953E-16  -4.92139935108533E-11  -4.89261174451657E-17
      2.98017055080835E-11  -5.86243802257733E-18  -7.90156650449439E-11  -4.88721600986788E-17   4.89183898937086E-11
      5.47345981215045E-17
      1.00000000000000E+04
      8.00000000000000E-01   0.00000000000000E+00  -1.81771747599451E+01  -3.03840931016824E-13   4.22633664207387E-16
     -1.24616151351712E-16  -4.16896308314630E-16   6.52882535313606E-17  -5.73735589279568E-18  -6.65001693967769E-11
     -4.16778482100044E-16   1.74404694403657E-10   4.65703431986190E-16  -1.09950298494091E-10  -4.89249498847074E-17
      6.65001101872146E-11  -5.85518210738138E-18  -1.76450343428474E-10  -4.88071236701216E-17   1.09838496562582E-10
      5.46623057771756E-17
      1.00000000000000E+04
      8.00000000000000E-01   0.00000000000000E+00  -1.86771747599451E+01  -1.51920465508412E-13   4.21926890606627E-16
     -2.01804486802684E-16  -4.16265151917077E-16   1.13312941611993E-16  -5.66173868962753E-18  -1.41535352383094E-10
     -4.16019959978261E-16   3.78737720512471E-10   4.64859495273814E-16  -2.34012068864531E-10  -4.88395352940357E-17
      1.41535263593059E-10  -5.90693062844394E-18  -3.75547219180402E-10  -4.85943433552191E-17   2.33805596417446E-10
      5.45012739840976E-17
      1.00000000000000E+04
      8.00000000000000E-01   0.00000000000000E+00  -1.91771747599451E+01  -1.51920465508412E-13   4.21298804129154E-16
     -2.96589379232653E-16  -4.15723073809071E-16   1.70220662910775E-16  -5.57573032018910E-18  -2.85947678713403E-10
     -4.15239642272554E-16   7.59298486611042E-10   4.63848174362147E-16  -4.72196265933770E-10  -4.86085320882500E-17
      2.85947552360773E-10  -6.05916185670774E-18  -7.58143648116176E-10  -4.81251005517309E-17   4.72472647731161E-10
      5.41842624075503E-17
      1.00000000000000E+04
      8.00000000000000E-01   0.00000000000000E+00  -1.96771747599451E+01   6.07681862033647E-13   4.20743272657499E-16
     -3.76350302788903E-16  -4.15271168579867E-16   2.15589785120879E-16  -5.47210407771859E-18  -5.45169140348254E-10
     -4.14374555610637E-16   1.44552322931254E-09   4.62524346900358E-16  -8.97956003983545E-10  -4.81497912885699E-17
      5.45168979935839E-10  -6.36871704694906E-18  -1.44312476833389E-09  -4.72531783193397E-17   8.98001871620222E-10
      5.36218953653552E-17
      1.00000000000000E+04
      8.00000000000000E-01   0.00000000000000E+00  -2.01771747599451E+01  -3.03840931016824E-13   4.20257997725483E-16
     -4.12780149351135E-16  -4.14914491817946E-16   2.32333779287830E-16  -5.34350590765374E-18  -9.74702470934305E-10
     -4.13362238633634E-16   2.57565957222961E-09   4.60742750250379E-16  -1.59904347396891E-09  -4.73805116153406E-17
      9.74702290646892E-10  -6.89575909196749E-18  -2.57374553230267E-09  -4.58282584310266E-17   1.59881097901053E-09
      5.27240175224714E-17
      1.00000000000000E+04
      8.00000000000000E-01   0.00000000000000E+00  -2.06771747599451E+01  -1.51920465508412E-13   4.19841864097781E-16
     -4.06000630104434E-16  -4.14656797087788E-16   2.21517838492954E-16  -5.18506701006569E-18  -1.62584354883174E-09
     -4.12164039084211E-16   4.28111871802704E-09   4.58422136554099E-16  -2.65260808407869E-09  -4.62580974685213E-17
      1.62584336447706E-09  -7.67782501364302E-18  -4.27845122702864E-09  -4.37653394649451E-17   2.65207556638034E-09
      5.14431644784472E-17
      1.00000000000000E+04
      8.00000000000000E-01   0.00000000000000E+00  -2.11771747599451E+01  -4.55761396525235E-13   4.19492082169838E-16
     -3.74253961027709E-16  -4.14494772767493E-16   1.95680847663220E-16  -4.99730940241797E-18  -2.52503614188945E-09
     -4.10790172615930E-16   6.61750355708091E-09   4.55611351406033E-16  -4.09086430903498E-09  -4.48211787887911E-17
      2.52503596366356E-09  -8.70190955398294E-18  -6.61590007702079E-09  -4.11165786372260E-17   4.09045853381399E-09
      4.98184881912559E-17
      1.00000000000000E+04
      8.00000000000000E-01   0.00000000000000E+00  -2.16771747599451E+01  -3.03840931016824E-13   4.19202478459078E-16
     -3.36044558209456E-16  -4.14415383548710E-16   1.67096625938313E-16  -4.78709491044773E-18  -3.65988510528405E-09
     -4.09304088833954E-16   9.53832642694563E-09   4.52497307645112E-16  -5.87998195903185E-09  -4.31932188102051E-17
      3.65988493649860E-09  -9.89838962520440E-18  -9.53986672843079E-09  -3.80819240954519E-17   5.88008161750308E-09
      4.79803137207248E-17
      1.00000000000000E+04
      8.00000000000000E-01   0.00000000000000E+00  -2.21771747599451E+01  -1.51920465508412E-13   4.18963918160747E-16
     -3.02965929936793E-16  -4.14398465603534E-16   1.42457491693150E-16  -4.56545255727878E-18  -4.98321517198929E-09
     -4.07797213418125E-16   1.29130876477495E-08   4.49333656761563E-16  -7.93045714178133E-09  -4.15364433430627E-17
      4.98321501177079E-09  -1.11667047426917E-17  -1.29136720111279E-08  -3.49351911576449E-17   7.93024829953910E-09
      4.61018958996199E-17
      1.00000000000000E+04
      8.00000000000000E-01   0.00000000000000E+00  -2.26771747599451E+01   0.00000000000000E+00   4.18766230325959E-16
     -2.76923468338316E-16  -4.14422442743720E-16   1.22827403578128E-16  -4.34378758230197E-18  -6.43169347788604E-09
     -4.06353026260942E-16   1.65614576269340E-08   4.46344029180560E-16  -1.01309716781744E-08  -3.99910029174583E-17
      6.43169332415204E-09  -1.24132040650826E-17  -1.65626648795185E-08  -3.19215864346734E-17   1.01305124014974E-08
      4.43347904988689E-17
      1.00000000000000E+04
      8.00000000000000E-01   0.00000000000000E+00  -2.31771747599451E+01  -1.21536372406729E-12   4.18600104964849E-16
     -2.54129153346253E-16  -4.14469126549331E-16   1.06778067821369E-16  -4.13097841565544E-18  -7.94515989216931E-09
     -4.05025261407485E-16   2.03254390803704E-08   4.43666381648471E-16  -1.23811595211330E-08  -3.86411202406106E-17
      7.94515974468003E-09  -1.35748435575038E-17  -2.03263191590504E-08  -2.91972550987644E-17   1.23810621775390E-08
      4.27720986552730E-17
      1.00000000000000E+04
      8.00000000000000E-01   0.00000000000000E+00  -2.36771747599451E+01  -4.55761396525235E-13   4.18458054474744E-16
     -2.33500980061792E-16  -4.14525627170683E-16   9.29809675729697E-17  -3.93242730420856E-18  -9.47723367776775E-09
     -4.03836198337108E-16   2.40842552379795E-08   4.41352139962078E-16  -1.46079466924525E-08  -3.75159416249670E-17
      9.47723353736439E-09  -1.46218561377788E-17  -2.40851801368157E-08  -2.68265127914111E-17   1.46076085200303E-08
      4.14483689289332E-17
      1.00000000000000E+04
      8.00000000000000E-01   0.00000000000000E+00  -2.41771747599451E+01   1.51920465508412E-13   4.18334504448007E-16
     -2.13657213024434E-16  -4.14583976211395E-16   8.08657070422692E-17  -3.75052823672370E-18  -1.09971281495848E-08
     -4.02785849177641E-16   2.77668073219034E-08   4.39393538559621E-16  -1.67666321814212E-08  -3.66076893796969E-17
      1.09971280168567E-08  -1.55486552704743E-17  -2.77637601174095E-08  -2.48095623459451E-17   1.67665502553704E-08
      4.03582176156396E-17
      1.00000000000000E+04
      8.00000000000000E-01   0.00000000000000E+00  -2.46771747599451E+01  -1.51920465508412E-13   4.18225456243824E-16
     -1.94597834837914E-16  -4.14639830505841E-16   7.02960621250101E-17  -3.58562573807192E-18  -1.24868521496104E-08
     -4.01862369361478E-16   3.13220500557313E-08   4.37752778703887E-16  -1.88346050355672E-08  -3.58904093409053E-17
      1.24868520252737E-08  -1.63630868824375E-17  -3.13214569905576E-08  -2.31129481965394E-17   1.88346435523364E-08
      3.94760350789488E-17
      1.00000000000000E+04
      8.00000000000000E-01   0.00000000000000E+00  -2.51771747599451E+01  -1.51920465508412E-13   4.18128064345200E-16
     -1.77483669501301E-16  -4.14691170988091E-16   6.12146543586663E-17  -3.43689335719777E-18  -1.39373247452736E-08
     -4.01049488192101E-16   3.47402605296706E-08   4.36382167043820E-16  -2.08038581543370E-08  -3.53326788504715E-17
      1.39373246289580E-08  -1.70785761531909E-17  -3.47411827220906E-08  -2.16909960544765E-17   2.08036847057909E-08
      3.87695722075309E-17
      1.00000000000000E+04
      8.00000000000000E-01   0.00000000000000E+00  -2.56771747599451E+01  -3.03840931016824E-13   4.18040279901725E-16
     -1.61971916114048E-16  -4.14737328788021E-16   5.35068157649550E-17  -3.30295111378235E-18  -1.53450590820012E-08
     -4.00330658156058E-16   3.80209829823247E-08   4.35234968107643E-16  -2.26749676764975E-08  -3.49043099505040E-17
      1.53450589734188E-08  -1.77096217457439E-17  -3.80200265964089E-08  -2.04976393185444E-17   2.26751929203890E-08
      3.82072610639446E-17
      1.00000000000000E+04
      8.00000000000000E-01   0.00000000000000E+00  -2.61771747599451E+01   3.03840931016824E-13   4.17960592565913E-16
     -1.48680895649680E-16  -4.14778353512187E-16   4.70001977076342E-17  -3.18223905378857E-18  -1.67098129576699E-08
     -3.99690929240944E-16   4.11663443002109E-08   4.34270020311610E-16  -2.44530144495829E-08  -3.45790910686222E-17
      1.67098128560053E-08  -1.82696633250366E-17  -4.11628272586124E-08  -1.94916667973686E-17   2.44531181282340E-08
      3.77613301218067E-17
      1.00000000000000E+04