DF-ISE text

Info {
  version   = 1.0
  type      = xyplot
  datasets  = [
    "frequency"
    "v(Ntop)" "v(Ptop)" "v(Pbot)" "a(Ntop,Ntop)" "c(Ntop,Ntop)"
    "a(Ntop,Ptop)" "c(Ntop,Ptop)" "a(Ntop,Pbot)" "c(Ntop,Pbot)" "a(Ptop,Ntop)"
    "c(Ptop,Ntop)" "a(Ptop,Ptop)" "c(Ptop,Ptop)" "a(Ptop,Pbot)" "c(Ptop,Pbot)"
    "a(Pbot,Ntop)" "c(Pbot,Ntop)" "a(Pbot,Ptop)" "c(Pbot,Ptop)" "a(Pbot,Pbot)"
    "c(Pbot,Pbot)" ]
  functions = [
    Frequency
    Voltage Voltage Voltage Admittance Capacitance
    Admittance Capacitance Admittance Capacitance Admittance
    Capacitance Admittance Capacitance Admittance Capacitance
    Admittance Capacitance Admittance Capacitance Admittance
    Capacitance ]
}

Data {
      1.00000000000000E+04
      8.00000000000000E-01   0.00000000000000E+00  -5.00000000000000E-02  -1.51920465508412E-13   2.84935501534761E-15
     -8.53819621322039E-15  -2.74417208838007E-15  -2.61787001191240E-15  -1.05182926968100E-16  -8.53986667639498E-15
     -2.74417209046717E-15  -1.21536372406729E-12   2.74418646937898E-15   1.49373573346254E-15  -1.43789116818520E-20
     -2.61642191335458E-15  -1.05182924881085E-16   1.49229470396307E-15  -1.43809987155475E-20  -1.51920465508412E-13
      1.05197305878469E-16
      1.00000000000000E+04
      8.00000000000000E-01   0.00000000000000E+00  -1.45555555555556E-01  -1.51920465508412E-13   2.84520805607175E-15
     -8.47666031230092E-15  -2.74415629709560E-15  -2.45463816391877E-15  -1.01051758976749E-16  -8.48150337996842E-15
     -2.74415629923711E-15  -3.19032977567665E-12   2.74417637682671E-15   1.43512966586020E-15  -2.00775891044465E-20
     -2.45332426497755E-15  -1.01051756835221E-16   1.43381728913008E-15  -2.00797306321131E-20  -1.51920465508412E-13
      1.01071836565668E-16
      1.00000000000000E+04
      8.00000000000000E-01   0.00000000000000E+00  -3.28172839506173E-01  -1.51920465508412E-13   2.83846791708307E-15
     -8.38224109635393E-15  -2.74410819531163E-15  -2.20092369487576E-15  -9.43597217726436E-17  -8.38594385306265E-15
     -2.74410819754091E-15  -1.36728418957571E-12   2.74414505905605E-15   1.34023067282479E-15  -3.68615127842229E-20
     -2.19993369494056E-15  -9.43597195434194E-17   1.33925504873490E-15  -3.68637420279493E-20   4.55761396525235E-13
      9.43965832854560E-17
      1.00000000000000E+04
      8.00000000000000E-01   0.00000000000000E+00  -6.77174759945130E-01   9.11522793050471E-13   2.82846857416541E-15
     -8.24404172372340E-15  -2.74389355511049E-15  -1.85616543859542E-15  -8.45750190559771E-17  -8.24759849754112E-15
     -2.74389355747020E-15   7.59602327542059E-13   2.74400085258318E-15   1.20160101362016E-15  -1.07295112274550E-19
     -1.85639262821237E-15  -8.45750166962337E-17   1.20182663423398E-15  -1.07297472015314E-19   1.51920465508412E-13
      8.46823141682735E-17
      1.00000000000000E+04
      8.00000000000000E-01   0.00000000000000E+00  -1.17717475994513E+00  -3.03840931016824E-13   2.81742115166915E-15
     -8.09962709561417E-15  -2.74285724393499E-15  -1.53353088284115E-15  -7.45639077353202E-17  -8.09777372550602E-15
     -2.74285724645445E-15  -2.73456837915141E-12   2.74327278089598E-15   1.05957502719739E-15  -4.15534440019544E-19
     -1.53853252714083E-15  -7.45639052159044E-17   1.06457714281541E-15  -4.15536959442013E-19  -4.55761396525235E-13
      7.49794421751123E-17
      1.00000000000000E+04
      8.00000000000000E-01   0.00000000000000E+00  -1.67717475994513E+00  -1.51920465508412E-13   2.80666546237810E-15
     -7.95951706281291E-15  -2.73941135383139E-15  -1.31075600302168E-15  -6.72541085477479E-17  -7.94227685382316E-15
     -2.73941135656480E-15  -1.36728418957571E-12   2.74071215838796E-15   9.53040083261107E-16  -1.30080182207811E-18
     -1.32896218654620E-15  -6.72541058143437E-17   9.71238214927597E-16  -1.30080455548276E-18  -3.03840931016824E-13
      6.85549103692256E-17
      1.00000000000000E+04
      8.00000000000000E-01   0.00000000000000E+00  -2.17717475994513E+00   1.06344325855888E-12   2.79121011239282E-15
     -7.69739052082483E-15  -2.73005330820335E-15  -1.12617607187276E-15  -6.11568041904678E-17  -7.65215705041092E-15
     -2.73005331126578E-15  -1.97496605160935E-12   2.73334710029447E-15   8.53535434505837E-16  -3.29378902713120E-18
     -1.17199179918738E-15  -6.11568011280360E-17   8.99346792062406E-16  -3.29379208956280E-18   4.55761396525235E-13
      6.44505932172835E-17
      1.00000000000000E+04
      8.00000000000000E-01   0.00000000000000E+00  -2.67717475994513E+00  -6.07681862033647E-13   2.76483020699814E-15
     -7.11244443502640E-15  -2.70981897916144E-15  -9.44389641560306E-16  -5.50112278376908E-17  -7.02107710934299E-15
     -2.70981898267381E-15  -2.27880698262618E-12   2.71662084262902E-15   7.32655617543150E-16  -6.80185995502217E-18
     -1.03611580757875E-15  -5.50112243253431E-17   8.24384960506536E-16  -6.80186346737229E-18  -1.51920465508412E-13
      6.18130877923088E-17
      1.00000000000000E+04
      8.00000000000000E-01   0.00000000000000E+00  -3.17717475994513E+00   0.00000000000000E+00   2.72601037908860E-15
     -6.14069911964331E-15  -2.67740327479110E-15  -7.52092713892604E-16  -4.86071042984786E-17  -5.99665538902174E-15
     -2.67740327867310E-15  -3.19032977567665E-12   2.68889875146092E-15   5.89284093682014E-16  -1.14954727856039E-17
     -8.97213141422776E-16  -4.86071004164962E-17   7.34410861131333E-16  -1.14954766675884E-17  -1.51920465508412E-13
      6.01025770832324E-17
      1.00000000000000E+04
      8.00000000000000E-01   0.00000000000000E+00  -3.67717475994513E+00  -1.06344325855888E-12   2.68383019134533E-15
     -5.09442119491519E-15  -2.64099873634310E-15  -5.80930261602872E-16  -4.28314550033768E-17  -4.91900405308149E-15
     -2.64099874023561E-15  -2.43072744813459E-12   2.65715849771360E-15   4.59892468540083E-16  -1.61597574768866E-17
     -7.58133084381936E-16  -4.28314511108764E-17   6.37093797977752E-16  -1.61597613693887E-17   0.00000000000000E+00
      5.89912124793921E-17
      1.00000000000000E+04
      8.00000000000000E-01   0.00000000000000E+00  -4.17717475994513E+00   3.03840931016824E-13   2.64854762785692E-15
     -4.30598258742235E-15  -2.61011343339682E-15  -4.63117928407313E-16  -3.84341944611077E-17  -4.12734163317746E-15
     -2.61011343696572E-15   1.51920465508412E-13   2.62995657086618E-15   3.71561754513711E-16  -1.98431338991406E-17
     -6.41853918314761E-16  -3.84341908922155E-17   5.50291897672589E-16  -1.98431374680331E-17  -3.03840931016824E-13
      5.82773283598855E-17
      1.00000000000000E+04
      8.00000000000000E-01   0.00000000000000E+00  -4.67717475994513E+00   1.51920465508412E-13   2.62148353604802E-15
     -3.74938818731515E-15  -2.58625988668781E-15  -3.85214353976002E-16  -3.52236493609089E-17  -3.59892995350210E-15
     -2.58625988971894E-15  -1.67112512059253E-12   2.60883413571866E-15   3.14958927092337E-16  -2.25742459992337E-17
     -5.36627603152749E-16  -3.52236463298021E-17   4.66380237485617E-16  -2.25742490303418E-17  -3.03840931016824E-13
      5.77978953594919E-17
      1.00000000000000E+04
      8.00000000000000E-01   0.00000000000000E+00  -5.17717475994513E+00   1.51920465508412E-12   2.59984945084648E-15
     -3.31200062872749E-15  -2.56711720825677E-15  -3.28918343924119E-16  -3.27322425908407E-17  -3.20290324030378E-15
     -2.56711721071712E-15  -3.03840931016824E-13   2.59182872711930E-15   2.74210804445963E-16  -2.47115164023042E-17
     -4.39180384343985E-16  -3.27322401304887E-17   3.84481059382841E-16  -2.47115188626578E-17   4.55761396525235E-13
      5.74437589927706E-17
      1.00000000000000E+04
      8.00000000000000E-01   0.00000000000000E+00  -5.67717475994513E+00  -6.07681862033647E-13   2.58131789336455E-15
     -2.96174466681641E-15  -2.55067507519543E-15  -2.86324981628742E-16  -3.06428181703638E-17  -2.88735420155776E-15
     -2.55067507722447E-15  -1.97496605160935E-12   2.57718974992145E-15   2.42425162662028E-16  -2.65146726946577E-17
     -3.61303544313647E-16  -3.06428161413119E-17   3.17404820822215E-16  -2.65146747237094E-17   3.03840931016824E-13
      5.71574908655830E-17
      1.00000000000000E+04
      8.00000000000000E-01   0.00000000000000E+00  -6.17717475994513E+00  -1.51920465508412E-13   2.56455323605125E-15
     -2.67754614848064E-15  -2.53576831623387E-15  -2.53562178756430E-16  -2.87849198184181E-17  -2.63031858433695E-15
     -2.53576831799535E-15   1.51920465508412E-13   2.56389425118710E-15   2.16858500137801E-16  -2.81259331919542E-17
     -3.06045300295912E-16  -2.87849180569502E-17   2.69345734649311E-16  -2.81259349534247E-17  -6.07681862033647E-13
      5.69108530103475E-17
      1.00000000000000E+04
      8.00000000000000E-01   0.00000000000000E+00  -6.67717475994513E+00   7.59602327542059E-13   2.54880892219052E-15
     -2.44973266170700E-15  -2.52174174494064E-15  -2.27123249527794E-16  -2.70671772508313E-17  -2.41219377304206E-15
     -2.52174174653653E-15  -2.58264791364300E-12   2.55136401406117E-15   1.95418337876956E-16  -2.96222675252240E-17
     -2.66343505080648E-16  -2.70671756549453E-17   2.34640686823023E-16  -2.96222691211105E-17  -1.51920465508412E-13
      5.66894447753710E-17
      1.00000000000000E+04
      8.00000000000000E-01   0.00000000000000E+00  -7.17717475994513E+00  -6.07681862033647E-13   2.53362311855675E-15
     -2.24989063281880E-15  -2.50818692146207E-15  -2.04645943766385E-16  -2.54361970954603E-17  -2.22010673917476E-15
     -2.50818692294707E-15  -2.27880698262618E-12   2.53923604804527E-15   1.76721979157298E-16  -3.10491250972680E-17
     -2.35856375166208E-16  -2.54361956104770E-17   2.07946090249005E-16  -3.10491265822527E-17   4.55761396525235E-13
      5.64853221924525E-17
      1.00000000000000E+04
      8.00000000000000E-01   0.00000000000000E+00  -7.67717475994513E+00  -1.51920465508412E-13   2.51865693991448E-15
     -2.07198712580511E-15  -2.49480064481723E-15  -1.84762270559935E-16  -2.38562950982405E-17  -2.04743590495405E-15
     -2.49480064622209E-15   1.51920465508412E-13   2.52723800092637E-15   1.59928865497704E-16  -3.24373547047648E-17
     -2.10971484459010E-16  -2.38562936933722E-17   1.86147329696594E-16  -3.24373561096324E-17   1.51920465508412E-13
      5.62936498028317E-17
      1.00000000000000E+04
      8.00000000000000E-01   0.00000000000000E+00  -8.17717475994513E+00  -7.59602327542059E-13   2.50360421856235E-15
     -1.90749039210008E-15  -2.48130510265608E-15  -1.66661095461642E-16  -2.22991159072082E-17  -1.88829964190667E-15
     -2.48130510400001E-15  -1.82304558610094E-12   2.51511709658686E-15   1.44473575106382E-16  -3.38119925865762E-17
     -1.89722340732152E-16  -2.22991145632663E-17   1.67535138028644E-16  -3.38119939305181E-17   0.00000000000000E+00
      5.61111084932157E-17
      1.00000000000000E+04
      8.00000000000000E-01   0.00000000000000E+00  -8.67717475994513E+00  -1.51920465508412E-13   2.48812604553517E-15
     -1.75399111858809E-15  -2.46738888300629E-15  -1.49776077748634E-16  -2.07371625297564E-17  -1.73409641278571E-15
     -2.46738888430231E-15  -3.34225024118506E-12   2.50258675428844E-15   1.29877818462660E-16  -3.51978699858402E-17
     -1.70933711866866E-16  -2.07371612337458E-17   1.51044646029230E-16  -3.51978712818519E-17   1.51920465508412E-13
      5.59350325154367E-17
      1.00000000000000E+04
      8.00000000000000E-01   0.00000000000000E+00  -9.17717475994513E+00   3.03840931016824E-13   2.47178384165209E-15
     -1.60352246575200E-15  -2.45264551009071E-15  -1.33544371545259E-16  -1.91383315623949E-17  -1.58460723338701E-15
     -2.45264551134711E-15  -1.21536372406729E-12   2.48927001058121E-15   1.15607052796567E-16  -3.66244992332406E-17
     -1.53598516762623E-16  -1.91383303059828E-17   1.35649203300475E-16  -3.66245004896524E-17   6.07681862033647E-13
      5.57628307955365E-17
      1.00000000000000E+04
      8.00000000000000E-01   0.00000000000000E+00  -9.67717475994513E+00   3.03840931016824E-13   2.45395712353652E-15
     -1.44530855321382E-15  -2.43649684981189E-15  -1.17238107554167E-16  -1.74602737254897E-17  -1.42586888042006E-15
     -2.43649685103117E-15  -1.51920465508412E-12   2.47462810787879E-15   1.00878514272613E-16  -3.81312568469720E-17
     -1.36336918286795E-16  -1.74602725062187E-17   1.19981025302814E-16  -3.81312580662440E-17   4.55761396525235E-13
      5.55915305727223E-17
      1.00000000000000E+04
      8.00000000000000E-01   0.00000000000000E+00  -1.01771747599451E+01  -1.51920465508412E-13   2.43375843424622E-15
     -1.26738803663943E-15  -2.41811258088563E-15  -9.99605769850423E-17  -1.56458533614547E-17  -1.25039998751395E-15
     -2.41811258206205E-15   0.00000000000000E+00   2.45788426215365E-15   8.42349278994348E-17  -3.97716800896334E-17
     -1.17619984066627E-16  -1.56458521850220E-17   1.01885644598725E-16  -3.97716812660650E-17   7.59602327542059E-13
      5.54175334507786E-17
      1.00000000000000E+04
      8.00000000000000E-01   0.00000000000000E+00  -1.06771747599451E+01   6.07681862033647E-13   2.41006531067058E-15
     -1.05699716767501E-15  -2.39643630233636E-15  -8.06034965717029E-17  -1.36290083349426E-17  -1.04399805997756E-15
     -2.39643630344475E-15  -2.73456837915141E-12   2.43804456565814E-15   6.24582766314230E-17  -4.16082622135195E-17
     -9.40676062863708E-17  -1.36290072265691E-17   7.59147181943637E-17  -4.16082633218935E-17   1.51920465508412E-13
      5.52372705488462E-17
      1.00000000000000E+04
      8.00000000000000E-01   0.00000000000000E+00  -1.11771747599451E+01   9.11522793050471E-13   2.38212207403023E-15
     -8.02012760141970E-16  -2.37073948256814E-15  -5.85943997380236E-17  -1.13825914625250E-17  -8.03357560434802E-16
     -2.37073948354212E-15  -2.27880698262618E-12   2.41440777715584E-15   2.71405391076142E-17  -4.36682936130767E-17
     -5.84724051590283E-17  -1.13825904885340E-17   2.70109560805935E-17  -4.36682945870680E-17   4.55761396525235E-13
      5.50508850754324E-17
      1.00000000000000E+04
      8.00000000000000E-01   0.00000000000000E+00  -1.16771747599451E+01   3.03840931016824E-13   2.35145814826208E-15
     -5.25307689209942E-16  -2.34240661263567E-15  -3.60588009189847E-17  -9.05153562713766E-18  -5.67970384550502E-16
     -2.34240661334315E-15  -9.11522793050471E-13   2.38822627346765E-15  -4.81897531398475E-17  -4.58196601230937E-17
      4.19912516197566E-18  -9.05153491965137E-18  -8.84441941025812E-17  -4.58196608305806E-17   0.00000000000000E+00
      5.48711957505413E-17
      1.00000000000000E+04
      8.00000000000000E-01   0.00000000000000E+00  -1.21771747599451E+01   0.00000000000000E+00   2.32359871631632E-15
     -3.03329328581241E-16  -2.31655646071991E-15  -1.84784804781597E-17  -7.04225559693342E-18  -4.56970838696766E-16
     -2.31655646093808E-15  -1.67112512059253E-12   2.36424156662959E-15  -2.58024312158733E-16  -4.76851056919426E-17
      1.34590896291509E-16  -7.04225537876485E-18  -4.11091642973156E-16  -4.76851059101112E-17   4.55761396525235E-13
      5.47273612880989E-17
      1.00000000000000E+04
      8.00000000000000E-01   0.00000000000000E+00  -1.26771747599451E+01  -7.59602327542059E-13   2.30411719379174E-15
     -1.77090796430192E-16  -2.29840828341024E-15  -8.95430683052372E-18  -5.70891038187011E-18  -6.56659447889255E-16
     -2.29840828266965E-15   0.00000000000000E+00   2.34733972737855E-15  -9.35176246497752E-16  -4.89314447100516E-17
      4.71408517384873E-16  -5.70891112247509E-18  -1.41554549074369E-15  -4.89314439694466E-17   0.00000000000000E+00
      5.46403550920948E-17
      1.00000000000000E+04
      8.00000000000000E-01   0.00000000000000E+00  -1.31771747599451E+01   7.59602327542059E-13   2.29309487716465E-15
     -1.21725774297360E-16  -2.28809724228710E-15  -5.00883596665661E-18  -4.99763487805004E-18  -1.60619335477121E-15
     -2.28809723918490E-15  -1.82304558610094E-12   2.33770069626268E-15  -3.16959396134819E-15  -4.96034570778632E-17
      1.47580896059084E-15  -4.99763798024768E-18  -4.65040835845592E-15  -4.96034539756656E-17   3.03840931016824E-13
      5.46010919552348E-17
      1.00000000000000E+04
      8.00000000000000E-01   0.00000000000000E+00  -1.36771747599451E+01  -1.51920465508412E-13   2.28733841820510E-15
     -1.04891993599438E-16  -2.28268654067089E-15  -3.35731283621176E-18  -4.65187753539877E-18  -4.68664685639484E-15
     -2.28268653082960E-15  -2.73456837915141E-12   2.33262333928769E-15  -1.03538627127809E-14  -4.99368084571842E-17
      4.57976148122978E-15  -4.65188737670456E-18  -1.49369581646304E-14  -4.99367986158782E-17   3.03840931016824E-13
      5.45886859912242E-17
      1.00000000000000E+04
      8.00000000000000E-01   0.00000000000000E+00  -1.41771747599451E+01   1.06344325855888E-12   2.28419781548918E-15
     -9.20036458467463E-17  -2.27971933500130E-15  -2.37845519853329E-18  -4.47848048870303E-18  -1.41432767729408E-14
     -2.27971930538536E-15   3.03840931016824E-13   2.32982963533722E-15  -3.26456281968821E-14  -5.01103299511189E-17
      1.40460413901457E-14  -4.47851010463443E-18  -4.66940602741561E-14  -5.01103003351877E-17  -3.03840931016824E-13
      5.45888104388431E-17
      1.00000000000000E+04
      8.00000000000000E-01   0.00000000000000E+00  -1.46771747599451E+01   4.55761396525235E-13   2.28227057376234E-15
     -8.13851818055417E-17  -2.27789001929112E-15  -1.49957834935835E-18  -4.38055447208224E-18  -4.21797060068691E-14
     -2.27788993270892E-15   1.82304558610094E-12   2.32810401994348E-15  -9.92739361067273E-14  -5.02140872348027E-17
      4.20914564415555E-14  -4.38064105427816E-18  -1.41366867018760E-13  -5.02140006526069E-17   3.03840931016824E-13
      5.45946417062355E-17
      1.00000000000000E+04
      8.00000000000000E-01   0.00000000000000E+00  -1.51771747599451E+01   9.11522793050471E-13   2.28091635710902E-15
     -7.55584284554993E-17  -2.27660056682810E-15  -5.17917160063001E-19  -4.31579028147919E-18  -1.22434229945577E-13
     -2.27660032124575E-15   4.70953443076077E-12   2.32688779590178E-15  -2.90936787273693E-13  -5.02874746567306E-17
      1.22355421550902E-13  -4.31603586383875E-18  -4.13292712343452E-13  -5.02872290743710E-17   1.51920465508412E-13
      5.46032649379896E-17
      1.00000000000000E+04
      8.00000000000000E-01   0.00000000000000E+00  -1.56771747599451E+01   9.11522793050471E-13   2.27985136579833E-15
     -6.96852270587462E-17  -2.27558515736697E-15   7.20751591517804E-19  -4.26620843214376E-18  -3.43730749324482E-13
     -2.27558448369262E-15   3.79801163771029E-12   2.32593154215629E-15  -8.21078870738263E-13  -5.03470584628028E-17
      3.43659223515077E-13  -4.26688210649855E-18  -1.16473736276113E-12  -5.03463847884481E-17   7.59602327542059E-13
      5.46132668949733E-17
      1.00000000000000E+04
      8.00000000000000E-01   0.00000000000000E+00  -1.61771747599451E+01   0.00000000000000E+00   2.27894695977621E-15
     -6.73515634999194E-17  -2.27472300511944E-15   2.57069436432928E-18  -4.22395465750501E-18  -9.30514991397192E-13
     -2.27472122214598E-15   5.92489815482806E-12   2.32512069290112E-15  -2.22960161847685E-12  -5.03994707544714E-17
      9.30449502388994E-13  -4.22573763097634E-18  -3.16004855984642E-12  -5.03976877810001E-17   2.43072744813459E-12
      5.46234254110697E-17
      1.00000000000000E+04
      8.00000000000000E-01   0.00000000000000E+00  -1.66771747599451E+01   3.03840931016824E-13   2.27814195893758E-15
     -6.42528017611886E-17  -2.27395662218218E-15   5.88867628616520E-18  -4.18533675610657E-18  -2.42430752484818E-12
     -2.27395207785597E-15   1.15459553786393E-11   2.32439838836140E-15  -5.81951522244204E-12  -5.04463105043925E-17
      2.42424577451685E-12  -4.18988108229291E-18  -8.24375508271794E-12  -5.04417661782061E-17   6.07681862033647E-12
      5.46316472597115E-17
      1.00000000000000E+04
      8.00000000000000E-01   0.00000000000000E+00  -1.71771747599451E+01  -6.07681862033647E-13   2.27740543571075E-15
     -6.97638683084406E-17  -2.27325710732168E-15   1.24836518757714E-17  -4.14832839002409E-18  -6.06860999497900E-12
     -2.27324597340081E-15   2.03573423781272E-11   2.32373109628266E-15  -1.45816716434314E-11  -5.04851228810446E-17
      6.06855094151326E-12  -4.15946231089772E-18  -2.06502101126667E-11  -5.04739889601712E-17   1.44324442232991E-11
      5.46334512707441E-17
      1.00000000000000E+04
      8.00000000000000E-01   0.00000000000000E+00  -1.76771747599451E+01   3.03840931016824E-13   2.27672074414642E-15
     -8.81091084686658E-17  -2.27260931551713E-15   2.57178200907261E-17  -4.11142862995960E-18  -1.45687618107385E-11
     -2.27258314704382E-15   5.19567992038768E-11   2.32309102733508E-15  -3.50145805424708E-11  -5.05078802903689E-17
      1.45686993773118E-11  -4.13759710327738E-18  -4.95832542178911E-11  -5.04817118170512E-17   3.46378661359179E-11
      5.46193089203817E-17
      1.00000000000000E+04
      8.00000000000000E-01   0.00000000000000E+00  -1.81771747599451E+01  -6.07681862033647E-13   2.27607851576729E-15
     -1.23129819943705E-16  -2.27200550803223E-15   5.06581871799409E-17  -4.07300773568509E-18  -3.34619624549628E-11
     -2.27194666848366E-15   1.14699951458851E-10   2.32244380462865E-15  -8.03878899670890E-11  -5.04971361439206E-17
      3.34618910853771E-11  -4.13184728427018E-18  -1.13849730387604E-10  -5.04382965953356E-17   8.05178467194583E-11
      5.45701438792219E-17
      1.00000000000000E+04
      8.00000000000000E-01   0.00000000000000E+00  -1.86771747599451E+01   3.03840931016824E-13   2.27547356038362E-15
     -1.77735037112297E-16  -2.27144276255641E-15   9.17587231708922E-17  -4.03079782759215E-18  -7.32930026342996E-11
     -2.27131667826154E-15   2.52795654605997E-10   2.32173661842067E-15  -1.75874808513672E-10  -5.04199401593806E-17
      7.32929132052283E-11  -4.15688212245620E-18  -2.49167629953806E-10  -5.02938558645168E-17   1.75923899058741E-10
      5.44507379864995E-17
      1.00000000000000E+04
      8.00000000000000E-01   0.00000000000000E+00  -1.91771747599451E+01  -6.07681862033647E-13   2.27490352063447E-15
     -2.57905326805867E-16  -2.27092205182815E-15   1.45799928174881E-16  -3.98146880706117E-18  -1.52417377693394E-10
     -2.27066592661203E-15   5.22302560417920E-10   2.32088706710673E-15  -3.65029629698384E-10  -5.02211404942909E-17
      1.52417265328903E-10  -4.23759402318613E-18  -5.17446749238985E-10  -4.99650152781664E-17   3.65064878616714E-10
      5.42026093010900E-17
      1.00000000000000E+04
      8.00000000000000E-01   0.00000000000000E+00  -1.96771747599451E+01   3.03840931016824E-13   2.27436824432020E-15
     -3.31875110914263E-16  -2.27044776081435E-15   1.95850001896988E-16  -3.92048350639651E-18  -2.99227679743537E-10
     -2.26995793047010E-15   1.01528447099272E-09   2.31977950742286E-15  -7.14568250317679E-10  -4.98215769523667E-17
      2.99227543585722E-10  -4.41031385064662E-18  -1.01379559804610E-09  -4.93317466081171E-17   7.14785790217078E-10
      5.37420604589174E-17
      1.00000000000000E+04
      8.00000000000000E-01   0.00000000000000E+00  -2.01771747599451E+01  -4.55761396525235E-13   2.27386921353536E-15
     -3.71798090022184E-16  -2.27002655479518E-15   2.21719957300314E-16  -3.84265874062178E-18  -5.51015133629740E-10
     -2.26915156259873E-15   1.85996225921949E-09   2.31828294475160E-15  -1.31065585979831E-09  -4.91313821517887E-17
      5.51014981486042E-10  -4.71765093705530E-18  -1.86167061958113E-09  -4.82563899553549E-17   1.31092169687209E-09
      5.29740408920858E-17
      1.00000000000000E+04
      8.00000000000000E-01   0.00000000000000E+00  -2.06771747599451E+01   3.03840931016824E-13   2.27340856683161E-15
     -3.75384682989920E-16  -2.26966478399318E-15   2.19078546266218E-16  -3.74378283900806E-18  -9.46170517417907E-10
     -2.26821534845827E-15   3.18805096869402E-09   2.31630153583080E-15  -2.23904654261813E-09  -4.80861873709073E-17
      9.46170360250667E-10  -5.19321837391670E-18  -3.18521668380041E-09  -4.66367518359999E-17   2.23854805926645E-09
      5.18299702084566E-17
      1.00000000000000E+04
      8.00000000000000E-01   0.00000000000000E+00  -2.11771747599451E+01   1.51920465508412E-13   2.27298767893914E-15
     -3.53597731498787E-16  -2.26936481928223E-15   1.98066574137518E-16  -3.62285965748485E-18  -1.51007723891687E-09
     -2.26714696265262E-15   5.06001494468867E-09   2.31384111764995E-15  -3.55083858259336E-09  -4.66941549966722E-17
      1.51007708441948E-09  -5.84071628708911E-18  -5.06091546894617E-09  -4.44762983670702E-17   3.55007743800057E-09
      5.03170146533675E-17
      1.00000000000000E+04
      8.00000000000000E-01   0.00000000000000E+00  -2.16771747599451E+01   4.55761396525235E-13   2.27260590982792E-15
     -3.19268983006047E-16  -2.26912244175568E-15   1.70521800206863E-16  -3.48346807243832E-18  -2.24239146153037E-09
     -2.26598281943665E-15   7.47494266441039E-09   2.31103922177891E-15  -5.23341282346285E-09  -4.50564023410969E-17
      2.24239131283139E-09  -6.62309039146370E-18  -7.47580396576098E-09  -4.19167800220737E-17   5.23320427536826E-09
      4.85398704135221E-17
      1.00000000000000E+04
      8.00000000000000E-01   0.00000000000000E+00  -2.21771747599451E+01  -6.07681862033647E-13   2.27226031746201E-15
     -2.83207014338795E-16  -2.26892742337580E-15   1.44695939944076E-16  -3.33289408687835E-18  -3.11572637732482E-09
     -2.26478597922202E-15   1.03281609271239E-08   2.30811973823114E-15  -7.21044922464443E-09  -4.33337590080398E-17
      3.11572623651511E-09  -7.47433824064873E-18  -1.03261753164459E-08  -3.91923148542763E-17   7.21014529302922E-09
      4.66666530946229E-17
      1.00000000000000E+04
      8.00000000000000E-01   0.00000000000000E+00  -2.26771747599451E+01   4.55761396525235E-13   2.27194642386574E-15
     -2.59694078666037E-16  -2.26876688145097E-15   1.24014739632501E-16  -3.17954241492391E-18  -4.08687600387343E-09
     -2.26362055685829E-15   1.34587859598557E-08   2.30530333181200E-15  -9.37188825277236E-09  -4.16827749539409E-17
      4.08687586918730E-09  -8.32586700760440E-18  -1.34587639979692E-08  -3.65364503612546E-17   9.37121391488638E-09
      4.48623173686047E-17
      1.00000000000000E+04
      8.00000000000000E-01   0.00000000000000E+00  -2.31771747599451E+01   9.11522793050471E-13   2.27165934402962E-15
     -2.35655706823926E-16  -2.26862885920785E-15   1.08070520992111E-16  -3.03048482265502E-18  -5.11156701038899E-09
     -2.26253198940669E-15   1.67200625929248E-08   2.30274116189437E-15  -1.16104185362891E-08  -4.02091724872296E-17
      5.11156687836393E-09  -9.12735462379657E-18  -1.67219853065658E-08  -3.41123026860995E-17   1.16105215764804E-08
      4.32396573101289E-17
      1.00000000000000E+04
      8.00000000000000E-01   0.00000000000000E+00  -2.36771747599451E+01  -1.51920465508412E-13   2.27139460367911E-15
     -2.20390048854228E-16  -2.26850424907005E-15   9.51738036104514E-17  -2.89035460969334E-18  -6.15407277453888E-09
     -2.26154217678730E-15   1.99975947158033E-08   2.30050122211166E-15  -1.38436279182453E-08  -3.89590453235851E-17
      6.15407264550441E-09  -9.85242689243310E-18  -1.99977004685811E-08  -3.19969730408552E-17   1.38436004989885E-08
      4.18493999337870E-17
      1.00000000000000E+04
      8.00000000000000E-01   0.00000000000000E+00  -2.41771747599451E+01   3.03840931016824E-13   2.27114847406833E-15
     -2.08578880041894E-16  -2.26838701449744E-15   8.40478438052626E-17  -2.76145957146340E-18  -7.18994343085026E-09
     -2.26065480646424E-15   2.32101048794441E-08   2.29858917743100E-15  -1.60187705774483E-08  -3.79343709677111E-17
      7.18994330783097E-09  -1.04936676046862E-17  -2.32087138012500E-08  -3.02021629344861E-17   1.60184938832069E-08
      4.06958305396677E-17
      1.00000000000000E+04
      8.00000000000000E-01   0.00000000000000E+00  -2.46771747599451E+01   3.03840931016824E-13   2.27091798195784E-15
     -1.93527490054601E-16  -2.26827355125741E-15   7.41391239333616E-17  -2.64443070095455E-18  -8.20453531854320E-09
     -2.25986312125557E-15   2.63124727055914E-08   2.29697634955546E-15  -1.81076166280188E-08  -3.71132282992926E-17
      8.20453519916431E-09  -1.10548607027916E-17  -2.63121517529896E-08  -2.87027982974804E-17   1.81075522044131E-08
      3.97576589996052E-17
      1.00000000000000E+04
      8.00000000000000E-01   0.00000000000000E+00  -2.51771747599451E+01   1.51920465508412E-13   2.27070078703877E-15
     -1.77766627712264E-16  -2.26816189164245E-15   6.53163613269020E-17  -2.53889539708175E-18  -9.19023167498556E-09
     -2.25915597050423E-15   2.92905695909528E-08   2.29562080258380E-15  -2.00987194443545E-08  -3.64648320787868E-17
      9.19023155884733E-09  -1.15448165352909E-17  -2.92889509379111E-08  -2.74589109405768E-17   2.00987737458319E-08
      3.90037274750303E-17
      1.00000000000000E+04
      8.00000000000000E-01   0.00000000000000E+00  -2.56771747599451E+01   1.36728418957571E-12   2.27049503878670E-15
     -1.66395346040225E-16  -2.26805106190004E-15   5.75655210000322E-17  -2.44397688751781E-18  -1.01438947996611E-08
     -2.25852138084506E-15   3.21333053415462E-08   2.29447939183948E-15  -2.19907586916770E-08  -3.59580109942978E-17
      1.01438946890644E-08  -1.19736579424992E-17  -3.21346533232286E-08  -2.64283299393073E-17   2.19909431437391E-08
      3.84019878815401E-17
      1.00000000000000E+04
      8.00000000000000E-01   0.00000000000000E+00  -2.61771747599451E+01  -4.55761396525235E-13   2.27029925515257E-15
     -1.55542307878110E-16  -2.26794064864327E-15   5.08467206532720E-17  -2.35860650993584E-18  -1.10650077603006E-08
     -2.25794826522054E-15   3.48522259127503E-08   2.29351325437959E-15  -2.37878835502365E-08  -3.55649891580375E-17
      1.10650076535328E-08  -1.23509899326648E-17  -3.48528911529513E-08  -2.55726057353067E-17   2.37878584097726E-08
      3.79235956679875E-17
      1.00000000000000E+04