DF-ISE text

Info {
  version   = 1.0
  type      = xyplot
  datasets  = [
    "frequency"
    "v(Ntop)" "v(Ptop)" "v(Pbot)" "a(Ntop,Ntop)" "c(Ntop,Ntop)"
    "a(Ntop,Ptop)" "c(Ntop,Ptop)" "a(Ntop,Pbot)" "c(Ntop,Pbot)" "a(Ptop,Ntop)"
    "c(Ptop,Ntop)" "a(Ptop,Ptop)" "c(Ptop,Ptop)" "a(Ptop,Pbot)" "c(Ptop,Pbot)"
    "a(Pbot,Ntop)" "c(Pbot,Ntop)" "a(Pbot,Ptop)" "c(Pbot,Ptop)" "a(Pbot,Pbot)"
    "c(Pbot,Pbot)" ]
  functions = [
    Frequency
    Voltage Voltage Voltage Admittance Capacitance
    Admittance Capacitance Admittance Capacitance Admittance
    Capacitance Admittance Capacitance Admittance Capacitance
    Admittance Capacitance Admittance Capacitance Admittance
    Capacitance ]
}

Data {
      1.00000000000000E+04
      8.00000000000000E-01   0.00000000000000E+00  -5.00000000000000E-02  -1.51920465508412E-13   2.84218368585856E-15
     -1.70748978218590E-14  -2.73700553496052E-15  -4.46616483839182E-15  -1.05178150898274E-16  -1.70797609992599E-14
     -2.73700554095020E-15   4.55761396525235E-13   2.73702305631205E-15   3.01211565686555E-15  -1.75153617674054E-20
     -4.46463904603270E-15  -1.05178144908669E-16   3.01059467866557E-15  -1.75213513909545E-20  -1.51920465508412E-13
      1.05195666258923E-16
      1.00000000000000E+04
      8.00000000000000E-01   0.00000000000000E+00  -1.45555555555556E-01   3.03840931016824E-13   2.83803104273942E-15
     -1.69567402432873E-14  -2.73698586279091E-15  -4.21779534886228E-15  -1.01045179949375E-16  -1.69601295262627E-14
     -2.73698586889623E-15  -3.03840931016824E-13   2.73701031823707E-15   2.89378819699651E-15  -2.44493390864146E-20
     -4.21641319024168E-15  -1.01045173844023E-16   2.89240591549792E-15  -2.44554444342153E-20   0.00000000000000E+00
      1.01069629288091E-16
      1.00000000000000E+04
      8.00000000000000E-01   0.00000000000000E+00  -3.28172839506173E-01   4.55761396525235E-13   2.83127378984952E-15
     -1.67622528430555E-14  -2.73692589176733E-15  -3.82821623861130E-15  -9.43478980831015E-17  -1.67659030616840E-14
     -2.73692589805663E-15  -7.59602327542059E-13   2.73697077832534E-15   2.70204700912351E-15  -4.48802654905502E-20
     -3.82720752765292E-15  -9.43478917938016E-17   2.70103973199113E-15  -4.48865547942806E-20  -1.51920465508412E-13
      9.43927783484050E-17
      1.00000000000000E+04
      8.00000000000000E-01   0.00000000000000E+00  -6.77174759945130E-01   1.21536372406729E-12   2.82119935378018E-15
     -1.64749762812228E-14  -2.73665775001814E-15  -3.28892783906207E-15  -8.45416037624066E-17  -1.64769239897578E-14
     -2.73665775657476E-15  -1.36728418957571E-12   2.73678848983450E-15   2.42119534590884E-15  -1.30733258967383E-19
     -3.28932798652214E-15  -8.45415972057564E-17   2.42158722465569E-15  -1.30739815611489E-19  -1.51920465508412E-13
      8.46723370207248E-17
      1.00000000000000E+04
      8.00000000000000E-01   0.00000000000000E+00  -1.17717475994513E+00   0.00000000000000E+00   2.80979346838514E-15
     -1.61470587005059E-14  -2.73535558704559E-15  -2.76941705517152E-15  -7.44378813404855E-17  -1.61446982009494E-14
     -2.73535559390385E-15   3.03840931016824E-13   2.73586384255856E-15   2.13017967359368E-15  -5.08248651925969E-19
     -2.77558485726957E-15  -7.44378744822967E-17   2.13635036908373E-15  -5.08255510126031E-19  -1.51920465508412E-13
      7.49461299918454E-17
      1.00000000000000E+04
      8.00000000000000E-01   0.00000000000000E+00  -1.67717475994513E+00   1.51920465508412E-12   2.79783084011683E-15
     -1.57649133921736E-14  -2.73096811313050E-15  -2.39469712213076E-15  -6.68627269868692E-17  -1.57442491823347E-14
     -2.73096812033539E-15  -2.73456837915141E-12   2.73257353066985E-15   1.90370953216022E-15  -1.60541033212356E-18
     -2.41725158584882E-15  -6.68627197820496E-17   1.92626224162321E-15  -1.60541753695085E-18  -1.51920465508412E-13
      6.84681373190867E-17
      1.00000000000000E+04
      8.00000000000000E-01   0.00000000000000E+00  -2.17717475994513E+00   7.59602327542059E-13   2.77895420014200E-15
     -1.50142297796548E-14  -2.71880708281247E-15  -2.05793512113408E-15  -6.01471173294595E-17  -1.49553834446314E-14
     -2.71880709047927E-15  -1.36728418957571E-12   2.72292984105210E-15   1.67796259103736E-15  -4.12275057114090E-18
     -2.11586255534235E-15  -6.01471096628838E-17   1.73589657996115E-15  -4.12275823773888E-18  -1.51920465508412E-13
      6.42698679001705E-17
      1.00000000000000E+04
      8.00000000000000E-01   0.00000000000000E+00  -2.67717475994513E+00   0.00000000000000E+00   2.74506314345148E-15
     -1.34263894652104E-14  -2.69216739710043E-15  -1.68514024050654E-15  -5.28957463520764E-17  -1.33092183460560E-14
     -2.69216740531712E-15  -2.58264791364300E-12   2.70078122554132E-15   1.39262022472369E-15  -8.61382022226545E-18
     -1.80321894491614E-15  -5.28957381354790E-17   1.51070151547110E-15  -8.61382843887248E-18   4.55761396525235E-13
      6.15095665743917E-17
      1.00000000000000E+04
      8.00000000000000E-01   0.00000000000000E+00  -3.17717475994513E+00  -3.03840931016824E-13   2.69585947610446E-15
     -1.10359154552047E-14  -2.65065500180066E-15  -1.28317888095330E-15  -4.52044743044291E-17  -1.08498008654436E-14
     -2.65065501028229E-15  -3.94993210321871E-12   2.66514329971908E-15   1.06518161437094E-15  -1.44882894351936E-17
     -1.46883510711109E-15  -4.52044658228689E-17   1.25084156431380E-15  -1.44882979167601E-17  -1.51920465508412E-13
      5.96927637392022E-17
      1.00000000000000E+04
      8.00000000000000E-01   0.00000000000000E+00  -3.67717475994513E+00   3.03840931016824E-13   2.64632663399750E-15
     -8.78377359960134E-15  -2.60769222018870E-15  -9.55903615013818E-16  -3.86344138094648E-17  -8.56346217110045E-15
     -2.60769222825078E-15  -2.43072744813459E-12   2.62759973090081E-15   7.97953588558800E-16  -1.99075026486136E-17
     -1.17436873962135E-15  -3.86344057475032E-17   1.01642109275379E-15  -1.99075107105849E-17   3.03840931016824E-13
      5.85419164580320E-17
      1.00000000000000E+04
      8.00000000000000E-01   0.00000000000000E+00  -4.17717475994513E+00   7.59602327542059E-13   2.60829833578447E-15
     -7.25741037586638E-15  -2.57431253561252E-15  -7.49488529886929E-16  -3.39858001727816E-17  -7.04921707419389E-15
     -2.57431254275928E-15  -2.27880698262618E-12   2.59816425826951E-15   6.32146917178201E-16  -2.38517155085905E-17
     -9.54706156298914E-16  -3.39857930260233E-17   8.37356551461671E-16  -2.38517226553480E-17  -6.07681862033647E-13
      5.78375156811963E-17
      1.00000000000000E+04
      8.00000000000000E-01   0.00000000000000E+00  -4.67717475994513E+00   1.36728418957571E-12   2.58045065846311E-15
     -6.23888585343941E-15  -2.54972552293161E-15  -6.19557787173092E-16  -3.07251355319081E-17  -6.08504036768263E-15
     -2.54972552897193E-15  -1.06344325855888E-12   2.57637771141499E-15   5.30226337845204E-16  -2.66521824415641E-17
     -7.77625325900291E-16  -3.07251294915544E-17   6.88295786633304E-16  -2.66521884819158E-17   1.51920465508412E-13
      5.73773179737442E-17
      1.00000000000000E+04
      8.00000000000000E-01   0.00000000000000E+00  -5.17717475994513E+00   3.03840931016824E-13   2.55842093734170E-15
     -5.49774181284483E-15  -2.53020420327418E-15  -5.29028970762320E-16  -2.82167340684687E-17  -5.39246017395408E-15
     -2.53020420835946E-15  -7.59602327542059E-13   2.55902632738476E-15   4.59126090239792E-16  -2.88221190240773E-17
     -6.34527340535371E-16  -2.82167289831929E-17   5.64627613794498E-16  -2.88221241093539E-17   1.51920465508412E-13
      5.70388530915351E-17
      1.00000000000000E+04
      8.00000000000000E-01   0.00000000000000E+00  -5.67717475994513E+00  -4.55761396525235E-13   2.53938536720960E-15
     -4.92739878701963E-15  -2.51328605436490E-15  -4.62256212583215E-16  -2.60993128453264E-17  -4.85966825043116E-15
     -2.51328605882663E-15  -1.82304558610094E-12   2.54395032863795E-15   4.05277583460870E-16  -3.06642698092302E-17
     -5.31023363366995E-16  -2.60993083835779E-17   4.74050466907385E-16  -3.06642742709765E-17   1.51920465508412E-13
      5.67635826540788E-17
      1.00000000000000E+04
      8.00000000000000E-01   0.00000000000000E+00  -6.17717475994513E+00   4.55761396525235E-13   2.52179034606807E-15
     -4.47209861604221E-15  -2.49760276227694E-15  -4.10122432576444E-16  -2.41875837918447E-17  -4.42295717663870E-15
     -2.49760276636834E-15  -1.82304558610094E-12   2.52993908587411E-15   3.61853250908005E-16  -3.23363195048283E-17
     -4.57783680664352E-16  -2.41875797004846E-17   4.09525964913962E-16  -3.23363235961901E-17  -4.55761396525235E-13
      5.65239032963893E-17
      1.00000000000000E+04
      8.00000000000000E-01   0.00000000000000E+00  -6.67717475994513E+00   9.11522793050471E-13   2.50466300904853E-15
     -4.08382950568762E-15  -2.48228747273564E-15  -3.66396529996308E-16  -2.23755363137247E-17  -4.04807194999526E-15
     -2.48228747659539E-15  -7.59602327542059E-13   2.51621738000483E-15   3.24493420095669E-16  -3.39299034073575E-17
     -4.02104651481045E-16  -2.23755324540224E-17   3.60203714519622E-16  -3.39299072670633E-17   1.51920465508412E-13
      5.63054397206979E-17
      1.00000000000000E+04
      8.00000000000000E-01   0.00000000000000E+00  -7.17717475994513E+00  -1.51920465508412E-13   2.48720534033441E-15
     -3.72261370985554E-15  -2.46661821687948E-15  -3.27031163372223E-16  -2.05871234560175E-17  -3.69611320484969E-15
     -2.46661822058157E-15  -7.59602327542059E-13   2.50213043365681E-15   2.90268331701567E-16  -3.55122130736712E-17
     -3.55738546246308E-16  -2.05871197538876E-17   3.18964547412941E-16  -3.55122167757993E-17   4.55761396525235E-13
      5.60993365290674E-17
      1.00000000000000E+04
      8.00000000000000E-01   0.00000000000000E+00  -7.67717475994513E+00   3.03840931016824E-13   2.46854545247781E-15
     -3.37013047525189E-15  -2.44979500413835E-15  -2.88897602316984E-16  -1.87504483405495E-17  -3.34281223353353E-15
     -2.44979500772192E-15  -9.11522793050471E-13   2.48694332447156E-15   2.56682643743234E-16  -3.71483167475435E-17
     -3.13521214147137E-16  -1.87504447569933E-17   2.81314892214991E-16  -3.71483203310998E-17   0.00000000000000E+00
      5.58987650873006E-17
      1.00000000000000E+04
      8.00000000000000E-01   0.00000000000000E+00  -8.17717475994513E+00   1.06344325855888E-12   2.44753469264090E-15
     -2.97119071555826E-15  -2.43075372844398E-15  -2.48778520599209E-16  -1.67809641977135E-17  -2.94968210528841E-15
     -2.43075373191963E-15   4.55761396525235E-13   2.46966988245785E-15   2.20910383380957E-16  -3.89161505367879E-17
     -2.71358154318293E-16  -1.67809607220409E-17   2.43487349181531E-16  -3.89161540124588E-17  -1.51920465508412E-13
      5.56971147343306E-17
      1.00000000000000E+04
      8.00000000000000E-01   0.00000000000000E+00  -8.67717475994513E+00   1.51920465508412E-13   2.42262574201520E-15
     -2.49197015882468E-15  -2.40805100077356E-15  -2.02806478958025E-16  -1.45747412423986E-17  -2.46881190373152E-15
     -2.40805100410984E-15  -1.21536372406729E-12   2.44896372851146E-15   1.79395010754479E-16  -4.09127244005217E-17
     -2.24767368012358E-16  -1.45747379061486E-17   2.01362673119815E-16  -4.09127277367736E-17   1.51920465508412E-13
      5.54874656420560E-17
      1.00000000000000E+04
      8.00000000000000E-01   0.00000000000000E+00  -9.17717475994513E+00  -3.03840931016824E-13   2.39230998458192E-15
     -1.88083820036776E-15  -2.38026321318433E-15  -1.47806489512153E-16  -1.20467713986088E-17  -1.85793917301500E-15
     -2.38026321627588E-15   1.51920465508412E-13   2.42348215423831E-15   1.29060264918399E-16  -4.32189379600310E-17
     -1.70078179174157E-16  -1.20467683070958E-17   1.51336001184719E-16  -4.32189410515460E-17   0.00000000000000E+00
      5.52657093578153E-17
      1.00000000000000E+04
      8.00000000000000E-01   0.00000000000000E+00  -9.67717475994513E+00   3.03840931016824E-13   2.35746523308145E-15
     -1.17057929295432E-15  -2.34816066097733E-15  -8.78457612510326E-17  -9.30457210519057E-18  -1.14608424099171E-15
     -2.34816066362519E-15  -4.55761396525235E-13   2.39389913321401E-15   7.30489345492791E-17  -4.57384695856192E-17
     -1.10987602154732E-16  -9.30456945736571E-18   9.61981447663147E-17  -4.57384722334446E-17  -1.51920465508412E-13
      5.50430416900591E-17
      1.00000000000000E+04
      8.00000000000000E-01   0.00000000000000E+00  -1.01771747599451E+01   9.11522793050471E-13   2.32485780352269E-15
     -5.73888686534218E-16  -2.31798853772088E-15  -3.97972261218867E-17  -6.86926580280681E-18  -5.52900455241820E-16
     -2.31798853971966E-15   1.51920465508412E-13   2.36597815120999E-15   2.50490915523794E-17  -4.79896114878643E-17
     -6.23173516092370E-17  -6.86926380403374E-18   4.75537139194680E-17  -4.79896134866376E-17  -1.51920465508412E-13
      5.48588772896633E-17
      1.00000000000000E+04
      8.00000000000000E-01   0.00000000000000E+00  -1.06771747599451E+01   1.06344325855888E-12   2.30265802690995E-15
     -2.60274145576807E-16  -2.29736561819404E-15  -1.53815432249456E-17  -5.29240871684662E-18  -2.44584079233200E-16
     -2.29736561952156E-15   1.51920465508412E-13   2.34682183663830E-15  -1.14286274347546E-17  -4.94562171147282E-17
     -3.17429606118453E-17  -5.29240738932299E-18   4.93188952850137E-18  -4.94562184422516E-17   0.00000000000000E+00
      5.47486258321415E-17
      1.00000000000000E+04
      8.00000000000000E-01   0.00000000000000E+00  -1.11771747599451E+01   6.07681862033647E-13   2.29110180955696E-15
     -1.46400635894235E-16  -2.28658506777658E-15  -6.79967822116003E-18  -4.51674178112994E-18  -1.53178687645855E-16
     -2.28658506856236E-15  -6.07681862033647E-13   2.33676946478760E-15  -7.07179277787888E-17  -5.01843962238666E-17
     -8.91945794117986E-19  -4.51674099535152E-18  -7.66151534586068E-17  -5.01843970096449E-17   0.00000000000000E+00
      5.47011380050184E-17
      1.00000000000000E+04
      8.00000000000000E-01   0.00000000000000E+00  -1.16771747599451E+01   3.03840931016824E-13   2.28566939462534E-15
     -1.16018350448059E-16  -2.28149166265449E-15  -4.00416748767193E-18  -4.17773197167610E-18  -1.93939180625488E-16
     -2.28149166295461E-15  -2.43072744813459E-12   2.33200033948957E-15  -2.56533136173607E-16  -5.05086765342286E-17
      7.62279958320914E-17  -4.17773167156579E-18  -3.36768189575515E-16  -5.05086768343388E-17  -4.55761396525235E-13
      5.46864085061390E-17
      1.00000000000000E+04
      8.00000000000000E-01   0.00000000000000E+00  -1.21771747599451E+01   1.06344325855888E-12   2.28296856963984E-15
     -1.01653762611929E-16  -2.27894448243217E-15  -2.75089181358378E-18  -4.02408720801037E-18  -4.27396341673558E-16
     -2.27894448197285E-15   1.51920465508412E-13   2.32960582362680E-15  -8.87992945251657E-16  -5.06613416526008E-17
      3.24177833119319E-16  -4.02408766734566E-18  -1.21492694346135E-15  -5.06613411932654E-17  -1.51920465508412E-13
      5.46854288603412E-17
      1.00000000000000E+04
      8.00000000000000E-01   0.00000000000000E+00  -1.26771747599451E+01   9.11522793050471E-13   2.28140478044851E-15
     -8.78709010872484E-17  -2.27746145687284E-15  -1.81754923951103E-18  -3.94332357639415E-18  -1.22115085999352E-15
     -2.27746145448324E-15  -2.12688651711777E-12   2.32820823443937E-15  -2.98006541990027E-15  -5.07467799547725E-17
      1.13034088937171E-15  -3.94332596598941E-18  -4.11221998851752E-15  -5.07467775651772E-17   3.03840931016824E-13
      5.46901035308846E-17
      1.00000000000000E+04
      8.00000000000000E-01   0.00000000000000E+00  -1.31771747599451E+01   1.51920465508412E-13   2.28032726697221E-15
     -7.98102868604521E-17  -2.27643580742772E-15  -9.58907765000522E-19  -3.89145954512431E-18  -3.76813080457485E-15
     -2.27643579936187E-15   1.51920465508412E-13   2.32724175357674E-15  -9.67226123980163E-15  -5.08059542135101E-17
      3.68883512977376E-15  -3.89146761098783E-18  -1.33620595787937E-14  -5.08059461476466E-17   0.00000000000000E+00
      5.46974137573179E-17
      1.00000000000000E+04
      8.00000000000000E-01   0.00000000000000E+00  -1.36771747599451E+01   4.55761396525235E-13   2.27947549120657E-15
     -6.60031057831786E-17  -2.27562385583562E-15  -2.07818041910059E-19  -3.85163537131931E-18  -1.16217081708985E-14
     -2.27562383096383E-15  -2.27880698262618E-12   2.32647846394873E-15  -3.03144185514588E-14  -5.08546329834227E-17
      1.15533181052724E-14  -3.85166024310566E-18  -4.18679482348325E-14  -5.08546081116364E-17   3.03840931016824E-13
      5.47062683554409E-17
      1.00000000000000E+04
      8.00000000000000E-01   0.00000000000000E+00  -1.41771747599451E+01  -3.03840931016824E-13   2.27874172831324E-15
     -5.67146943890104E-17  -2.27492453705490E-15   4.23126401642769E-19  -3.81719125847719E-18  -3.49547751492984E-14
     -2.27492446371925E-15   9.11522793050471E-13   2.32582353062184E-15  -9.16676289822345E-14  -5.08990669018436E-17
      3.48926425931859E-14  -3.81726459409914E-18  -1.26559844844456E-13  -5.08989935662218E-17  -1.51920465508412E-13
      5.47162581598877E-17
      1.00000000000000E+04
      8.00000000000000E-01   0.00000000000000E+00  -1.46771747599451E+01   9.11522793050471E-13   2.27807874285857E-15
     -5.42257473331796E-17  -2.27429340894852E-15   1.03633257750679E-18  -3.78533391061444E-18  -1.01705058277977E-13
     -2.27429320055829E-15   1.82304558610094E-12   2.32523503348390E-15  -2.67261935080324E-13  -5.09418329234651E-17
      1.01649093058174E-13  -3.78554230083920E-18  -3.68909993203338E-13  -5.09416245332404E-17   7.59602327542059E-13
      5.47271668342045E-17
      1.00000000000000E+04
      8.00000000000000E-01   0.00000000000000E+00  -1.51771747599451E+01  -6.07681862033647E-13   2.27746417186214E-15
     -5.23981726764515E-17  -2.27370939564986E-15   1.85756932874416E-18  -3.75477621278390E-18  -2.85519557471869E-13
     -2.27370882448088E-15  -1.51920465508412E-13   2.32469274462774E-15  -7.50795934891471E-13  -5.09839201445677E-17
      2.85467364410592E-13  -3.75534738174279E-18  -1.03626142856102E-12  -5.09833489756088E-17   7.59602327542059E-13
      5.47386963570597E-17
      1.00000000000000E+04
      8.00000000000000E-01   0.00000000000000E+00  -1.56771747599451E+01   1.21536372406729E-12   2.27688643654871E-15
     -5.27161261635406E-17  -2.27316161090785E-15   3.30305070259442E-18  -3.72482564125333E-18  -7.72285291472042E-13
     -2.27316010178394E-15   5.46913675830282E-12   2.32418541334118E-15  -2.03068530179614E-12  -5.10253115549961E-17
      7.72232685344042E-13  -3.72633476515883E-18  -2.80291467905238E-12  -5.10238024310907E-17   1.97496605160935E-12
      5.47501371960052E-17
      1.00000000000000E+04
      8.00000000000000E-01   0.00000000000000E+00  -1.61771747599451E+01   6.07681862033647E-13   2.27633895299848E-15
     -5.84930862739567E-17  -2.27264395461344E-15   6.20816641114621E-18  -3.69499838544691E-18  -2.01041895831163E-12
     -2.27264011462195E-15   1.09382735166056E-11   2.32370486164882E-15  -5.28328563449678E-12  -5.10647470256701E-17
      2.01036758072913E-12  -3.69883837693410E-18  -7.29364699604881E-12  -5.10609070341828E-17   5.62105722381124E-12
      5.47597454109701E-17
      1.00000000000000E+04
      8.00000000000000E-01   0.00000000000000E+00  -1.66771747599451E+01   9.11522793050471E-13   2.27581765726221E-15
     -6.01201379536267E-17  -2.27215284574244E-15   1.22659415536982E-17  -3.66481152036340E-18  -5.03091322611445E-12
     -2.27214344799543E-15   1.88381377230431E-11   2.32324212428337E-15  -1.32070198384667E-11  -5.10986762872129E-17
      5.03086248400247E-12  -3.67420926736055E-18  -1.82378700493193E-11  -5.10892785402159E-17   1.33690009647402E-11
      5.47634878077232E-17
      1.00000000000000E+04
      8.00000000000000E-01   0.00000000000000E+00  -1.71771747599451E+01   1.51920465508412E-13   2.27531992679534E-15
     -8.09633055837962E-17  -2.27168631928258E-15   2.46650417874871E-17  -3.63360751292127E-18  -1.20837696191455E-11
     -2.27166423598358E-15   4.34492531354058E-11   2.32278326997250E-15  -3.16721706103855E-11  -5.11190339879851E-17
      1.20837141027639E-11  -3.65569081193851E-18  -4.37558600670478E-11  -5.10969506889679E-17   3.20552182222749E-11
      5.47526415001642E-17
      1.00000000000000E+04
      8.00000000000000E-01   0.00000000000000E+00  -1.76771747599451E+01  -1.51920465508412E-13   2.27484414177743E-15
     -1.14313256206693E-16  -2.27124380319835E-15   4.84640222451187E-17  -3.60033857924447E-18  -2.78010134644803E-11
     -2.27119409623001E-15   1.01330950494111E-10   2.32230336748848E-15  -7.27112695355448E-11  -5.11092712575285E-17
      2.78009484702708E-11  -3.65004554759218E-18  -1.00512169552289E-10  -5.10595642891808E-17   7.30737439095461E-11
      5.47096098366336E-17
      1.00000000000000E+04
      8.00000000000000E-01   0.00000000000000E+00  -1.81771747599451E+01  -4.55761396525235E-13   2.27438957740346E-15
     -1.69441154398491E-16  -2.27082629559857E-15   8.89654249462356E-17  -3.56328180530330E-18  -6.10901947596878E-11
     -2.27071948700251E-15   2.22563481969823E-10   2.32175780701737E-15  -1.59323975601024E-10  -5.10383200127134E-17
      6.10901134726980E-11  -3.67009040135531E-18  -2.20414000106528E-10  -5.09315114166614E-17   1.59516488783832E-10
      5.46016018173308E-17
      1.00000000000000E+04
      8.00000000000000E-01   0.00000000000000E+00  -1.86771747599451E+01   3.03840931016824E-13   2.27395647450513E-15
     -2.48421424217357E-16  -2.27043674644700E-15   1.45389928327011E-16  -3.51972805856637E-18  -1.27702900194545E-10
     -2.27021870321536E-15   4.63357419800656E-10   2.32107228286995E-15  -3.31832754498813E-10  -5.08535796539534E-17
      1.27702795168320E-10  -3.73777129020259E-18  -4.59535404282210E-10  -5.06355364223171E-17   3.31338535273846E-10
      5.43733077132586E-17
      1.00000000000000E+04
      8.00000000000000E-01   0.00000000000000E+00  -1.91771747599451E+01   4.55761396525235E-13   2.27354614387751E-15
     -3.35470217359146E-16  -2.27008031250561E-15   2.02904719516587E-16  -3.46583137265837E-18  -2.52619460309116E-10
     -2.26966012972831E-15   9.08788224671319E-10   2.32013769083913E-15  -6.53366142413350E-10  -5.04775611078337E-17
      2.52619328245982E-10  -3.88601414995583E-18  -9.05985267772691E-10  -5.00573783305362E-17   6.52802240289645E-10
      5.39433924803636E-17
      1.00000000000000E+04
      8.00000000000000E-01   0.00000000000000E+00  -1.96771747599451E+01   3.03840931016824E-13   2.27316088483335E-15
     -3.92657998640267E-16  -2.26976389234071E-15   2.38370699314937E-16  -3.39699249303196E-18  -4.69977125944191E-10
     -2.26900536556256E-15   1.68008842805753E-09   2.31882316274382E-15  -1.20841274228175E-09  -4.98177971791679E-17
      4.69976974822241E-10  -4.15551927119182E-18  -1.67838947873032E-09  -4.90592704010086E-17   1.20837538265391E-09
      5.32147896725469E-17
      1.00000000000000E+04
      8.00000000000000E-01   0.00000000000000E+00  -2.01771747599451E+01   3.03840931016824E-13   2.27280345932196E-15
     -3.98289412420916E-16  -2.26949430776544E-15   2.41148912699708E-16  -3.30915155695536E-18  -8.17348512299577E-10
     -2.26822109262851E-15   2.90411161865880E-09   2.31702061358631E-15  -2.08640338487454E-09  -4.87995209567880E-17
      8.17348350572874E-10  -4.58236669385771E-18  -2.90375149429411E-09  -4.75263058198861E-17   2.08632375282702E-09
      5.21086725140830E-17
      1.00000000000000E+04
      8.00000000000000E-01   0.00000000000000E+00  -2.06771747599451E+01  -4.55761396525235E-13   2.27247606805576E-15
     -3.77102112019689E-16  -2.26927527235519E-15   2.19775035031750E-16  -3.20079570100680E-18  -1.32348414922039E-09
     -2.26729773227875E-15   4.67307351903875E-09   2.31471192109297E-15  -3.34911489825560E-09  -4.74141888119638E-17
      1.32348398996198E-09  -5.17833577745127E-18  -4.67259866844697E-09  -4.54366487355208E-17   3.34939050306396E-09
      5.06149845132570E-17
      1.00000000000000E+04
      8.00000000000000E-01   0.00000000000000E+00  -2.11771747599451E+01   3.03840931016824E-13   2.27217926262067E-15
     -3.43216257547596E-16  -2.26910478143268E-15   1.89487025077342E-16  -3.07448118833070E-18  -1.99509784568364E-09
     -2.26626232803357E-15   6.99715280038643E-09   2.31201166203886E-15  -4.99791679091018E-09  -4.57493340035885E-17
      1.99509768824834E-09  -5.91693458742763E-18  -6.99301428968964E-09  -4.29068806044899E-17   4.99787947429573E-09
      4.88238151911226E-17
      1.00000000000000E+04
      8.00000000000000E-01   0.00000000000000E+00  -2.16771747599451E+01   9.11522793050471E-13   2.27191150896079E-15
     -3.13227193366174E-16  -2.26897503067242E-15   1.60824646269599E-16  -2.93647828860302E-18  -2.81243475894155E-09
     -2.26517196051191E-15   9.77942420570748E-09   2.30913726063740E-15  -6.96634564811275E-09  -4.39653001233827E-17
      2.81243460656553E-09  -6.73954844911503E-18  -9.77878009386877E-09  -4.01622299628713E-17   6.96616102542271E-09
      4.69017784105899E-17
      1.00000000000000E+04
      8.00000000000000E-01   0.00000000000000E+00  -2.21771747599451E+01   4.55761396525235E-13   2.27166967304900E-15
     -2.79232452333782E-16  -2.26887507514737E-15   1.36918668221315E-16  -2.79459790226330E-18  -3.73736700979239E-09
     -2.26409074303991E-15   1.28845266002339E-08   2.30632191963205E-15  -9.14550981696373E-09  -4.22311765898950E-17
      3.73736686573425E-09  -7.57893000970917E-18  -1.28828765457631E-08  -3.74468444824579E-17   9.14561202360639E-09
      4.50257744918765E-17
      1.00000000000000E+04
      8.00000000000000E-01   0.00000000000000E+00  -2.26771747599451E+01   3.03840931016824E-13   2.27144997078471E-15
     -2.59294698537879E-16  -2.26879419318688E-15   1.16972326965469E-16  -2.65577759847420E-18  -4.72729398371504E-09
     -2.26306827306411E-15   1.61503608472682E-08   2.30373764148226E-15  -1.14221890788801E-08  -4.06693684151796E-17
      4.72729384395530E-09  -8.38169772126185E-18  -1.61494828058564E-08  -3.49434482923983E-17   1.14219882787844E-08
      4.33251460132735E-17
      1.00000000000000E+04
      8.00000000000000E-01   0.00000000000000E+00  -2.31771747599451E+01   0.00000000000000E+00   2.27124876111441E-15
     -2.33736414318129E-16  -2.26872398179155E-15   9.98492974384500E-17  -2.52477932380731E-18  -5.74579447253048E-09
     -2.26213160021816E-15   1.94502252785765E-08   2.30147031174453E-15  -1.37055856394310E-08  -3.93387115235254E-17
      5.74579433703078E-09  -9.11716089719757E-18  -1.94513798766305E-08  -3.27463299501374E-17   1.37056567163069E-08
      4.18634908471237E-17
      1.00000000000000E+04
      8.00000000000000E-01   0.00000000000000E+00  -2.36771747599451E+01   3.03840931016824E-13   2.27106293480436E-15
     -2.16806080913094E-16  -2.26865882306007E-15   8.50845560321926E-17  -2.40411174529483E-18  -6.76674247112606E-09
     -2.26128863929400E-15   2.27014751609220E-08   2.29953615152807E-15  -1.59356081312730E-08  -3.82475122316939E-17
      6.76674234272340E-09  -9.77429551137208E-18  -2.27023503889170E-08  -3.08773284656254E-17   1.59355453090393E-08
      4.06516239770843E-17
      1.00000000000000E+04
      8.00000000000000E-01   0.00000000000000E+00  -2.41771747599451E+01   6.07681862033647E-13   2.27088998738658E-15
     -1.92248706057739E-16  -2.26859540360897E-15   7.25409860738604E-17  -2.29458377808384E-18  -7.77372849278948E-09
     -2.26053550327387E-15   2.58538248202215E-08   2.29791065664249E-15  -1.80790119925503E-08  -3.73751533670074E-17
      7.77372837144879E-09  -1.03544841131802E-17  -2.58527402914891E-08  -2.93152530319074E-17   1.80791430773630E-08
      3.96697371447473E-17
      1.00000000000000E+04
      8.00000000000000E-01   0.00000000000000E+00  -2.46771747599451E+01   3.03840931016824E-13   2.27072794355501E-15
     -1.75738753034417E-16  -2.26853198919366E-15   6.20602893876995E-17  -2.19595436226753E-18  -8.75764759763595E-09
     -2.25986281873195E-15   2.88797766522181E-08   2.29655222923659E-15  -2.01215233496580E-08  -3.66894105010854E-17
      8.75764748204492E-09  -1.08651248239805E-17  -2.88791707696645E-08  -2.80202400393714E-17   2.01218656565891E-08
      3.88853648623924E-17
      1.00000000000000E+04
      8.00000000000000E-01   0.00000000000000E+00  -2.51771747599451E+01   1.36728418957571E-12   2.27057524463025E-15
     -1.62692902823662E-16  -2.26846780610949E-15   5.33874726327788E-17  -2.10743852164623E-18  -9.71422248834165E-09
     -2.25925968035896E-15   3.17723423154982E-08   2.29541632944809E-15  -2.20605554323750E-08  -3.61566490882422E-17
      9.71422237790328E-09  -1.13155642721770E-17  -3.17747777569275E-08  -2.69485233377056E-17   2.20603707964765E-08
      3.82640876099050E-17
      1.00000000000000E+04
      8.00000000000000E-01   0.00000000000000E+00  -2.56771747599451E+01  -1.51920465508412E-13   2.27043064682799E-15
     -1.51908159078925E-16  -2.26840261447097E-15   4.62263844693068E-17  -2.02803235768225E-18  -1.06421011445189E-08
     -2.25871565241710E-15   3.45403331970615E-08   2.29446220446958E-15  -2.38999443027509E-08  -3.57465520513330E-17
      1.06421010399983E-08  -1.17149944115703E-17  -3.45420452965397E-08  -2.60595899974456E-17   2.39001276337833E-08
      3.77745844088615E-17
      1.00000000000000E+04
      8.00000000000000E-01   0.00000000000000E+00  -2.61771747599451E+01   1.51920465508412E-13   2.27029314242789E-15
     -1.42708666112466E-16  -2.26833644568123E-15   4.02960041175110E-17  -1.95669674744015E-18  -1.15415800555261E-08
     -2.25822156946669E-15   3.71890665132007E-08   2.29365523379262E-15  -2.56466038363641E-08  -3.54336643237670E-17
      1.15415799531774E-08  -1.20715729619654E-17  -3.71881837491981E-08  -2.53187881092609E-17   2.56463014643370E-08
      3.73903610711873E-17
      1.00000000000000E+04