DF-ISE text

Info {
  version   = 1.0
  type      = xyplot
  datasets  = [
    "frequency"
    "v(Ntop)" "v(Ptop)" "v(Pbot)" "a(Ntop,Ntop)" "c(Ntop,Ntop)"
    "a(Ntop,Ptop)" "c(Ntop,Ptop)" "a(Ntop,Pbot)" "c(Ntop,Pbot)" "a(Ptop,Ntop)"
    "c(Ptop,Ntop)" "a(Ptop,Ptop)" "c(Ptop,Ptop)" "a(Ptop,Pbot)" "c(Ptop,Pbot)"
    "a(Pbot,Ntop)" "c(Pbot,Ntop)" "a(Pbot,Ptop)" "c(Pbot,Ptop)" "a(Pbot,Pbot)"
    "c(Pbot,Pbot)" ]
  functions = [
    Frequency
    Voltage Voltage Voltage Admittance Capacitance
    Admittance Capacitance Admittance Capacitance Admittance
    Capacitance Admittance Capacitance Admittance Capacitance
    Admittance Capacitance Admittance Capacitance Admittance
    Capacitance ]
}

Data {
      1.00000000000000E+04
      8.00000000000000E-01   0.00000000000000E+00  -5.00000000000000E-02  -7.59602327542059E-13   6.60909879763791E-16
     -9.18497235512151E-16  -5.55719805994899E-16  -1.04590404233832E-15  -1.05190073768918E-16  -9.19722004599770E-16
     -5.55719806053230E-16  -2.43072744813459E-12   5.55729494291909E-16   1.93401366591216E-16  -9.68823679578367E-21
     -1.04464830684316E-15  -1.05190073710588E-16   1.92145889075957E-16  -9.68829512546306E-21   0.00000000000000E+00
      1.05199762005728E-16
      1.00000000000000E+04
      8.00000000000000E-01   0.00000000000000E+00  -1.45555555555556E-01   0.00000000000000E+00   6.56771394297337E-16
     -9.11110347653372E-16  -5.55709778010976E-16  -9.54648579967020E-16  -1.01061616286364E-16  -9.12232206373079E-16
     -5.55709778090684E-16  -1.97496605160935E-12   5.55723306853001E-16   1.85868206428935E-16  -1.35287601212364E-20
     -9.53495692228677E-16  -1.01061616206671E-16   1.84722436049404E-16  -1.35288398213846E-20  -1.51920465508412E-13
      1.01075145045785E-16
      1.00000000000000E+04
      8.00000000000000E-01   0.00000000000000E+00  -3.28172839506173E-01   4.55761396525235E-13   6.50056737707089E-16
     -8.99474750160002E-16  -5.55679283064751E-16  -8.15741596005826E-16  -9.43774546423675E-17  -9.00341724392849E-16
     -5.55679283179518E-16  -1.51920465508412E-12   5.55704116481536E-16   1.73703192150131E-16  -2.48333002922352E-20
     -8.14865102502282E-16  -9.43774545276024E-17   1.72828269992345E-16  -2.48334150590308E-20  -1.51920465508412E-13
      9.44022879425455E-17
      1.00000000000000E+04
      8.00000000000000E-01   0.00000000000000E+00  -6.77174759945130E-01  -1.51920465508412E-12   6.40168810046476E-16
     -8.84414979350862E-16  -5.55543740634276E-16  -6.34877250872017E-16  -8.46250694122164E-17  -8.84384346230018E-16
     -5.55543740801627E-16  -4.55761396525235E-13   5.55615917851189E-16   1.56086442932266E-16  -7.21770484892596E-20
     -6.34899398304793E-16  -8.46250692448561E-17   1.56097596716428E-16  -7.21772158434083E-20  -3.03840931016824E-13
      8.46972464606569E-17
      1.00000000000000E+04
      8.00000000000000E-01   0.00000000000000E+00  -1.17717475994513E+00  -6.07681862033647E-13   6.29646977640191E-16
     -8.77321093531906E-16  -5.54895945730177E-16  -4.75414723311914E-16  -7.47510319100318E-17  -8.74012513259759E-16
     -5.54895945964568E-16  -1.36728418957571E-12   5.55173796078310E-16   1.38485148702054E-16  -2.77850111941213E-19
     -4.78697027326871E-16  -7.47510316756430E-17   1.41764550396868E-16  -2.77850346329810E-19  -3.03840931016824E-13
      7.50288820205529E-17
      1.00000000000000E+04
      8.00000000000000E-01   0.00000000000000E+00  -1.67717475994513E+00   0.00000000000000E+00   6.20611752545819E-16
     -8.87531284637892E-16  -5.52788410216543E-16  -3.71296903618448E-16  -6.78233423293020E-17  -8.75606037737385E-16
     -5.52788410548546E-16  -7.59602327542059E-13   5.53646299949878E-16   1.25904947547079E-16  -8.57889399646315E-19
     -3.83213851502705E-16  -6.78233419972971E-17   1.37816277595257E-16  -8.57889731650509E-19   3.03840931016824E-13
      6.86812317281140E-17
      1.00000000000000E+04
      8.00000000000000E-01   0.00000000000000E+00  -2.17717475994513E+00   4.55761396525235E-13   6.09830027103422E-16
     -9.02671861892550E-16  -5.47250066030266E-16  -2.92776983181559E-16  -6.25799610731949E-17  -8.73549421281554E-16
     -5.47250066519774E-16  -2.43072744813459E-12   5.49376381413985E-16   1.14423334071477E-16  -2.12631489226741E-18
     -3.21870877032861E-16  -6.25799605836902E-17   1.43517868971131E-16  -2.12631538177248E-18  -1.51920465508412E-13
      6.47062759649701E-17
      1.00000000000000E+04
      8.00000000000000E-01   0.00000000000000E+00  -2.67717475994513E+00  -1.06344325855888E-12   5.93490472959110E-16
     -8.88518261148929E-16  -5.35565062482292E-16  -2.34380516050279E-16  -5.79254104768261E-17  -8.31848828775874E-16
     -5.35565063193633E-16  -2.12688651711777E-12   5.39872288212916E-16   9.95537527620732E-17  -4.30722501741041E-18
     -2.91026267016270E-16  -5.79254097654860E-17   1.56198347540737E-16  -4.30722572875069E-18   4.55761396525235E-13
      6.22326354936144E-17
      1.00000000000000E+04
      8.00000000000000E-01   0.00000000000000E+00  -3.17717475994513E+00   7.59602327542059E-13   5.69742019139722E-16
     -8.10627493222499E-16  -5.16350878365767E-16  -1.82862131047627E-16  -5.33911407739692E-17  -7.21132473235482E-16
     -5.16350879289915E-16   6.07681862033647E-13   5.23636447659732E-16   7.96871233940130E-17  -7.28556836843610E-18
     -2.72314394980718E-16  -5.33911398498255E-17   1.69146906866627E-16  -7.28556929258029E-18  -6.07681862033647E-13
      6.06767091422521E-17
      1.00000000000000E+04
      8.00000000000000E-01   0.00000000000000E+00  -3.67717475994513E+00   6.07681862033647E-13   5.41620410959084E-16
     -6.81623367619641E-16  -4.92496649113300E-16  -1.34497298633108E-16  -4.91237618458123E-17  -5.68384087001858E-16
     -4.92496650137479E-16  -9.11522793050471E-13   5.03028372908372E-16   5.85936232756720E-17  -1.05317227702845E-17
     -2.47710677289201E-16  -4.91237608216358E-17   1.71813681497442E-16  -1.05317237944610E-17  -1.51920465508412E-13
      5.96554846159975E-17
      1.00000000000000E+04
      8.00000000000000E-01   0.00000000000000E+00  -4.17717475994513E+00  -6.07681862033647E-13   5.15289149277603E-16
     -5.66484053310002E-16  -4.69732679514005E-16  -1.00032990924987E-16  -4.55564697636373E-17  -4.41935872867882E-16
     -4.69732680521367E-16  -1.36728418957571E-12   4.83140141572650E-16   4.28014793165917E-17  -1.34074610492161E-17
     -2.24558755194889E-16  -4.55564687562750E-17   1.67327270756714E-16  -1.34074620565782E-17  -1.51920465508412E-13
      5.89639308128400E-17
      1.00000000000000E+04
      8.00000000000000E-01   0.00000000000000E+00  -4.67717475994513E+00  -7.59602327542059E-13   4.93985726993402E-16
     -4.86554560299518E-16  -4.51173996995665E-16  -7.71666926051302E-17  -4.28117299977601E-17  -3.66490228644128E-16
     -4.51173997878943E-16  -6.07681862033647E-13   4.66844488691220E-16   3.36061946552940E-17  -1.56704908106170E-17
     -1.97199448710295E-16  -4.28117291144864E-17   1.53651419625508E-16  -1.56704916938908E-17   4.55761396525235E-13
      5.84822208078064E-17
      1.00000000000000E+04
      8.00000000000000E-01   0.00000000000000E+00  -5.17717475994513E+00  -3.03840931016824E-13   4.77224882334528E-16
     -4.19073723178873E-16  -4.36531828488206E-16  -6.11983796528140E-17  -4.06930538463456E-17  -3.17325257025969E-16
     -4.36531829177992E-16  -4.55761396525235E-13   4.53965270414533E-16   2.77878816275524E-17  -1.74334412347525E-17
     -1.62938903915258E-16  -4.06930531565606E-17   1.29533958471977E-16  -1.74334419245375E-17   0.00000000000000E+00
      5.81264950806538E-17
      1.00000000000000E+04
      8.00000000000000E-01   0.00000000000000E+00  -5.67717475994513E+00   3.03840931016824E-13   4.63560202804991E-16
     -3.48279227015708E-16  -4.24584970067901E-16  -4.86110235669227E-17  -3.89752327371322E-17  -2.71795179813316E-16
     -4.24584970551411E-16  -1.36728418957571E-12   4.43454214495918E-16   2.28530633464406E-17  -1.88692439430026E-17
     -1.25091943875483E-16  -3.89752322536229E-17   9.93319795794234E-17  -1.88692444265119E-17  -3.03840931016824E-13
      5.78444766797700E-17
      1.00000000000000E+04
      8.00000000000000E-01   0.00000000000000E+00  -6.17717475994513E+00  -7.59602327542059E-13   4.51889951727451E-16
     -2.86490798227987E-16  -4.14381354084628E-16  -3.91442003885832E-17  -3.75085976428199E-17  -2.32062579960873E-16
     -4.14381354411160E-16  -6.07681862033647E-13   4.34479919738240E-16   1.87784688353973E-17  -2.00985653259161E-17
     -9.35552248068735E-17  -3.75085973162883E-17   7.31796022830289E-17  -2.00985656524478E-17  -6.07681862033647E-13
      5.76071629687680E-17
      1.00000000000000E+04
      8.00000000000000E-01   0.00000000000000E+00  -6.67717475994513E+00   0.00000000000000E+00   4.41543999171689E-16
     -2.41863324756297E-16  -4.05337531878995E-16  -3.25579042872219E-17  -3.62064672927205E-17  -2.02384287384959E-16
     -4.05337532108396E-16  -3.19032977567665E-12   4.26529933659999E-16   1.57770853357768E-17  -2.11924015508723E-17
     -7.20032749139464E-17  -3.62064670633205E-17   5.52368885514301E-17  -2.11924017802723E-17   0.00000000000000E+00
      5.73988688431442E-17
      1.00000000000000E+04
      8.00000000000000E-01   0.00000000000000E+00  -7.17717475994513E+00   7.59602327542059E-13   4.32126196035823E-16
     -2.10744989320933E-16  -3.97107306217053E-16  -2.78763069256975E-17  -3.50188898187733E-17  -1.80668046558837E-16
     -3.97107306388560E-16  -6.07681862033647E-13   4.19299273876266E-16   1.35649268315127E-17  -2.21919674868149E-17
     -5.79256558997056E-17  -3.50188896472693E-17   4.36045530937972E-17  -2.21919676583194E-17  -1.51920465508412E-13
      5.72108573044971E-17
      1.00000000000000E+04
      8.00000000000000E-01   0.00000000000000E+00  -7.67717475994513E+00  -3.03840931016824E-13   4.23393293125464E-16
     -1.88112279357651E-16  -3.89477471715636E-16  -2.43017850542407E-17  -3.39158214098365E-17  -1.64074297574568E-16
     -3.89477471850948E-16  -7.59602327542059E-13   4.12599659871586E-16   1.18389402643250E-17  -2.31221880195585E-17
     -4.83236120832232E-17  -3.39158212745262E-17   3.58646076289477E-17  -2.31221881548690E-17  -4.55761396525235E-13
      5.70380094287150E-17
      1.00000000000000E+04
      8.00000000000000E-01   0.00000000000000E+00  -8.17717475994513E+00  -4.55761396525235E-13   4.15187372466126E-16
     -1.70731664570649E-16  -3.82309177197463E-16  -2.14075526116105E-17  -3.28781952686806E-17  -1.50692668579672E-16
     -3.82309177308573E-16  -6.07681862033647E-13   4.06308146459501E-16   1.04159222697013E-17  -2.39989691495915E-17
     -4.14162665663628E-17  -3.28781951575724E-17   3.04421240424746E-17  -2.39989692606997E-17   0.00000000000000E+00
      5.68771644180769E-17
      1.00000000000000E+04
      8.00000000000000E-01   0.00000000000000E+00  -8.67717475994513E+00   3.03840931016824E-13   4.07400383035011E-16
     -1.56757089580712E-16  -3.75507070362154E-16  -1.89976377676369E-17  -3.18933126728750E-17  -1.39498842688496E-16
     -3.75507070456070E-16  -1.51920465508412E-12   4.00340039004904E-16   9.19300644078040E-18  -2.48329685474751E-17
     -3.62422440149452E-17  -3.18933125789602E-17   2.64470734698238E-17  -2.48329686413900E-17  -1.51920465508412E-13
      5.67262812203500E-17
      1.00000000000000E+04
      8.00000000000000E-01   0.00000000000000E+00  -9.17717475994513E+00   3.03840931016824E-13   3.99955165350342E-16
     -1.45127222927245E-16  -3.69002779054466E-16  -1.69802545830747E-17  -3.09523862958855E-17  -1.29856525981851E-16
     -3.69002779135528E-16  -3.03840931016824E-13   3.94634387529082E-16   8.10892189952780E-18  -2.56316083925980E-17
     -3.22543546595740E-17  -3.09523862148228E-17   2.33770977097673E-17  -2.56316084736607E-17  -3.03840931016824E-13
      5.65839946883168E-17
      1.00000000000000E+04
      8.00000000000000E-01   0.00000000000000E+00  -9.67717475994513E+00  -3.03840931016824E-13   3.92794745937829E-16
     -1.35227668990131E-16  -3.62745599180047E-16  -1.53038836404780E-17  -3.00491467577840E-17  -1.21411423286940E-16
     -3.62745599250986E-16  -7.59602327542059E-13   3.89145816137367E-16   7.11348253661645E-18  -2.64002168854861E-17
     -2.90850284891214E-17  -3.00491466868460E-17   2.09028374487669E-17  -2.64002169564241E-17   6.07681862033647E-13
      5.64493636429578E-17
      1.00000000000000E+04
      8.00000000000000E-01   0.00000000000000E+00  -1.01771747599451E+01   4.55761396525235E-13   3.85875910958313E-16
     -1.26617918419882E-16  -3.56696913413959E-16  -1.39068631513076E-17  -2.91789975443515E-17  -1.14157978853111E-16
     -3.56696913476083E-16   1.21536372406729E-12   3.83839633761762E-16   6.13145007410753E-18  -2.71427202840093E-17
     -2.63468443991063E-17  -2.91789974822277E-17   1.85624725603728E-17  -2.71427203461330E-17   1.51920465508412E-13
      5.63217178280142E-17
      1.00000000000000E+04
      8.00000000000000E-01   0.00000000000000E+00  -1.06771747599451E+01  -1.21536372406729E-12   3.79165140310878E-16
     -1.18913732452934E-16  -3.50826662654842E-16  -1.27058881528594E-17  -2.83384776560418E-17  -1.08412893568491E-16
     -3.50826662707313E-16  -1.36728418957571E-12   3.78688746468173E-16   4.96371851767382E-18  -2.78620837604989E-17
     -2.31765903175717E-17  -2.83384776035732E-17   1.54321923784733E-17  -2.78620838129677E-17  -7.59602327542059E-13
      5.62005614157756E-17
      1.00000000000000E+04
      8.00000000000000E-01   0.00000000000000E+00  -1.11771747599451E+01  -1.82304558610094E-12   3.72635946119270E-16
     -1.11948295027330E-16  -3.45111032572361E-16  -1.16674577669475E-17  -2.75249135468989E-17  -1.05795839231269E-16
     -3.45111032609823E-16  -1.21536372406729E-12   3.73671631307087E-16   2.99596482380603E-18  -2.85605986959580E-17
     -1.77906285752970E-17  -2.75249135094372E-17   9.12420461757498E-18  -2.85605987334198E-17   0.00000000000000E+00
      5.60855122429577E-17
      1.00000000000000E+04
      8.00000000000000E-01   0.00000000000000E+00  -1.16771747599451E+01  -1.67112512059253E-12   3.66267099238964E-16
     -1.05710586858886E-16  -3.39530905280217E-16  -1.07954165919242E-17  -2.67361939587416E-17  -1.11598345490994E-16
     -3.39530905284469E-16  -1.82304558610094E-12   3.68770975824105E-16  -1.72979317699615E-18  -2.92400705376128E-17
     -4.89215349077486E-18  -2.67361939544898E-17  -7.62238920851914E-18  -2.92400705418647E-17   1.51920465508412E-13
      5.59762644962133E-17
      1.00000000000000E+04
      8.00000000000000E-01   0.00000000000000E+00  -1.21771747599451E+01  -1.51920465508412E-13   3.60041435434010E-16
     -1.00037809778251E-16  -3.34070810626996E-16  -1.00493185392396E-17  -2.59706248070254E-17  -1.42273436818370E-16
     -3.34070810541111E-16  -4.55761396525235E-13   3.63972752166855E-16  -1.54512991220532E-17  -2.99019416253973E-17
      3.21773746659148E-17  -2.59706248929107E-17  -5.77012907715003E-17  -2.99019415395120E-17  -1.51920465508412E-13
      5.58725664319694E-17
      1.00000000000000E+04
      8.00000000000000E-01   0.00000000000000E+00  -1.26771747599451E+01  -1.51920465508412E-13   3.53945043412436E-16
     -9.48218756354081E-17  -3.28718208623624E-16  -9.38759806787451E-18  -2.52268347888258E-17  -2.48370557100656E-16
     -3.28718208276371E-16  -7.59602327542059E-13   3.59265580649017E-16  -5.78980372104134E-17  -3.05473723709946E-17
      1.44185239972713E-16  -2.52268351360804E-17  -2.11474461066867E-16  -3.05473720237399E-17  -1.51920465508412E-13
      5.57742071594477E-17
      1.00000000000000E+04
      8.00000000000000E-01   0.00000000000000E+00  -1.31771747599451E+01   3.03840931016824E-13   3.47966705381407E-16
     -8.99790737751286E-17  -3.23462993222610E-16  -8.78370676879278E-18  -2.45037121587988E-17  -5.81178445623243E-16
     -3.23462992111227E-16  -3.03840931016824E-12   3.54640288544681E-16  -1.90159984131194E-16  -3.11772964318963E-17
      4.82438037870813E-16  -2.45037132701827E-17  -6.81388269748067E-16  -3.11772953205124E-17   3.03840931016824E-13
      5.56810085905136E-17
      1.00000000000000E+04
      8.00000000000000E-01   0.00000000000000E+00  -1.36771747599451E+01  -7.59602327542059E-13   3.42097506980906E-16
     -8.54865022095690E-17  -3.18297146529285E-16  -8.21850783313070E-18  -2.38003604516243E-17  -1.58400082607161E-15
     -3.18297143205912E-16  -1.36728418957571E-12   3.50089602957286E-16  -5.97560014725276E-16  -3.17924597513067E-17
      1.49031104669214E-15  -2.38003637749975E-17  -2.09608064115473E-15  -3.17924564279335E-17   0.00000000000000E+00
      5.55928202025862E-17
      1.00000000000000E+04
      8.00000000000000E-01   0.00000000000000E+00  -1.41771747599451E+01   3.03840931016824E-13   3.36330564428374E-16
     -8.13351711177454E-17  -3.13214498481490E-16  -7.66979507666385E-18  -2.31160659468888E-17  -4.52835128399313E-15
     -3.13214488857863E-16   6.07681862033647E-13   3.45607938152970E-16  -1.83014936564558E-15  -3.23934492932437E-17
      4.43939940231911E-15  -2.31160755705172E-17  -6.27719264412629E-15  -3.23934396696154E-17   3.03840931016824E-13
      5.55095152403059E-17
      1.00000000000000E+04
      8.00000000000000E-01   0.00000000000000E+00  -1.46771747599451E+01  -4.55761396525235E-13   3.30660836409010E-16
     -7.75213908774281E-17  -3.08210563745666E-16  -7.11887464419549E-18  -2.24502726633490E-17  -1.29777990640619E-14
     -3.08210536519265E-16  -9.11522793050471E-13   3.41191251177039E-16  -5.48246239567442E-15  -3.29807146566308E-17
      1.28931761807464E-14  -2.24502998897500E-17  -1.83827567985003E-14  -3.29806874302298E-17   0.00000000000000E+00
      5.54309873200370E-17
      1.00000000000000E+04
      8.00000000000000E-01   0.00000000000000E+00  -1.51771747599451E+01  -7.59602327542059E-13   3.25085000200805E-16
     -7.40456436357296E-17  -3.03282438063523E-16  -6.54686858827761E-18  -2.18025621372875E-17  -3.66729782668927E-14
     -3.03282362689730E-16   1.06344325855888E-12   3.36836946570984E-16  -1.60615576346465E-14  -3.35545838793475E-17
      3.65924057165038E-14  -2.18026375110803E-17  -5.26605052707623E-14  -3.35545085055547E-17   0.00000000000000E+00
      5.53571460167591E-17
      1.00000000000000E+04
      8.00000000000000E-01   0.00000000000000E+00  -1.56771747599451E+01   1.51920465508412E-13   3.19601378882773E-16
     -7.09345090345321E-17  -2.98428743276102E-16  -5.93843247903920E-18  -2.11726356066785E-17  -1.01539077028320E-13
     -2.98428539202618E-16   1.21536372406729E-12   3.32543811943616E-16  -4.59673134368459E-14  -3.41152727406322E-17
      1.01462208387452E-13  -2.11728396801633E-17  -1.47435458219938E-13  -3.41150686671473E-17   3.03840931016824E-13
      5.52879083467614E-17
      1.00000000000000E+04
      8.00000000000000E-01   0.00000000000000E+00  -1.61771747599451E+01   6.07681862033647E-13   3.14209911833314E-16
     -6.82590097371437E-17  -2.93649616231122E-16  -5.26467306081841E-18  -2.05602956021955E-17  -2.74634018458235E-13
     -2.93649076523630E-16   2.27880698262618E-12   3.28311959871226E-16  -1.28342835247750E-13  -3.46628833466779E-17
      2.74560494730838E-13  -2.05608353096891E-17  -4.02908586195637E-13  -3.46623436391842E-17  -1.51920465508412E-13
      5.52231789488781E-17
      1.00000000000000E+04
      8.00000000000000E-01   0.00000000000000E+00  -1.66771747599451E+01   4.55761396525235E-13   3.08912166352787E-16
     -6.61881707915814E-17  -2.88946744332266E-16  -4.46246213078626E-18  -1.99654220205148E-17  -7.24184815084504E-13
     -2.88945352124626E-16   3.79801163771029E-12   3.24142732381448E-16  -3.49077145342977E-13  -3.51973802556307E-17
      7.24114190148193E-13  -1.99668142281561E-17  -1.07319579684813E-12  -3.51959880479895E-17   3.03840931016824E-13
      5.51628022764437E-17
      1.00000000000000E+04
      8.00000000000000E-01   0.00000000000000E+00  -1.71771747599451E+01   3.03840931016824E-13   3.03711396598923E-16
     -6.51735896486124E-17  -2.84323462901207E-16  -3.38349285581042E-18  -1.93879336977385E-17  -1.85858547348145E-12
     -2.84319965549052E-16   5.77297768931965E-12   3.20038481792698E-16  -9.23481574506468E-13  -3.57185162420209E-17
      1.85851693808791E-12  -1.93914310498941E-17  -2.78200190417549E-12  -3.57150188898654E-17   3.03840931016824E-13
      5.51064499389284E-17
      1.00000000000000E+04
      8.00000000000000E-01   0.00000000000000E+00  -1.76771747599451E+01  -1.21536372406729E-12   2.98612670125509E-16
     -6.61995508312294E-17  -2.79784951161746E-16  -1.69126129226358E-18  -1.88277189637655E-17  -4.63475028153335E-12
     -2.79776409738382E-16   9.57098932702994E-12   3.16002056722255E-16  -2.37232538505125E-12  -3.62256469825434E-17
      4.63468244787221E-12  -1.88362603871301E-17  -7.00700949799387E-12  -3.62171055591788E-17   1.97496605160935E-12
      5.50533659458208E-17
      1.00000000000000E+04
      8.00000000000000E-01   0.00000000000000E+00  -1.81771747599451E+01  -4.55761396525235E-13   2.93623105303154E-16
     -7.12957466452457E-17  -2.75338599182315E-16   1.34927942902655E-18  -1.82845061208546E-17  -1.12100023203805E-11
     -2.75318356460894E-16   1.89900581885515E-11   3.12035669119610E-16  -5.90704763066183E-12  -3.67173126575179E-17
      1.12099323978311E-11  -1.83047488422761E-17  -1.71169786887666E-11  -3.66970699360965E-17   6.07681862033647E-12
      5.50018187777286E-17
      1.00000000000000E+04
      8.00000000000000E-01   0.00000000000000E+00  -1.86771747599451E+01   7.59602327542059E-13   2.88752295356190E-16
     -8.45636213440161E-17  -2.70994668344883E-16   7.21749116047804E-18  -1.77576270113085E-17  -2.62451339404328E-11
     -2.70948213594334E-16   4.20819689458301E-11   3.08138576964449E-16  -1.42271477350805E-11  -3.71903633686995E-17
      2.62450566296076E-11  -1.78040817618575E-17  -4.04721971483708E-11  -3.71439086181504E-17   1.44324442232991E-11
      5.49479903796045E-17
      1.00000000000000E+04
      8.00000000000000E-01   0.00000000000000E+00  -1.91771747599451E+01   6.07681862033647E-13   2.84013026968357E-16
     -1.13186055571653E-16  -2.66767417911134E-16   1.85775685118429E-17  -1.72456090572343E-17  -5.93368055528756E-11
     -2.66664450528761E-16   9.57098932702994E-11   3.04302722743094E-16  -3.30633465581017E-11  -3.76382722122546E-17
      5.93367109661752E-11  -1.73485764396069E-17  -9.24000389411288E-11  -3.75353048298819E-17   3.25109796188001E-11
      5.48838812688999E-17
      1.00000000000000E+04
      8.00000000000000E-01   0.00000000000000E+00  -1.96771747599451E+01  -6.07681862033647E-13   2.79422396607113E-16
     -1.67300300081987E-16  -2.62676863169343E-16   3.92663161718251E-17  -1.67455334377873E-17  -1.29167518970168E-10
     -2.62457144605430E-16   2.01598457729662E-10   3.00505339462169E-16  -7.39144864633627E-11  -3.80481948562494E-17
      1.29167390944232E-10  -1.69652520017014E-17  -2.03081838143775E-10  -3.78284762923353E-17   7.39852667025966E-11
      5.47937282939080E-17
      1.00000000000000E+04
      8.00000000000000E-01   0.00000000000000E+00  -2.01771747599451E+01   1.06344325855888E-12   2.75003295863919E-16
     -2.54472951101788E-16  -2.58751126383705E-16   7.23049665904469E-17  -1.62521694802346E-17  -2.69712343480558E-10
     -2.58301673437804E-16   4.30542599250839E-10   2.96698233498214E-16  -1.58332006552890E-10  -3.83965600596659E-17
      2.69712161317909E-10  -1.67016224261363E-17  -4.28044095595653E-10  -3.79471071137643E-17   1.58453045525274E-10
      5.46487295395475E-17
      1.00000000000000E+04
      8.00000000000000E-01   0.00000000000000E+00  -2.06771747599451E+01  -7.59602327542059E-13   2.70785824677477E-16
     -3.65923212098296E-16  -2.55028699577717E-16   1.14610818858473E-16  -1.57571250997799E-17  -5.37614799684443E-10
     -2.54152240392977E-16   8.64883210139388E-10   2.92796319054345E-16  -3.23364885280590E-10  -3.86440786609898E-17
      5.37614548369116E-10  -1.66335842845212E-17  -8.60979319067341E-10  -3.77676194762483E-17   3.23742511998426E-10
      5.44012037593984E-17
      1.00000000000000E+04
      8.00000000000000E-01   0.00000000000000E+00  -2.11771747599451E+01   6.07681862033647E-13   2.66807389763024E-16
     -4.67253799766246E-16  -2.51558686344967E-16   1.53139289133428E-16  -1.52487034180820E-17  -1.01693079565424E-09
     -2.49940678590914E-16   1.64484288005957E-09   2.88674363068618E-16  -6.25805382941683E-10  -3.87336844762521E-17
      1.01693048157097E-09  -1.68667111721349E-17  -1.64273571135976E-09  -3.71156767221999E-17   6.25608476963640E-10
      5.39823878934134E-17
      1.00000000000000E+04
      8.00000000000000E-01   0.00000000000000E+00  -2.16771747599451E+01   1.36728418957571E-12   2.63109402253724E-16
     -5.19876641011128E-16  -2.48395779379181E-16   1.72828640138333E-16  -1.47136228745591E-17  -1.81346861934020E-09
     -2.45590142301030E-16   2.95606841786268E-09   2.84188444652878E-16  -1.13987749710393E-09  -3.85983023509876E-17
      1.81346827232255E-09  -1.75192599527096E-17  -2.95334559658846E-09  -3.57926652728374E-17   1.13940349131309E-09
      5.33119252257156E-17
      1.00000000000000E+04
      8.00000000000000E-01   0.00000000000000E+00  -2.21771747599451E+01  -1.51920465508412E-13   2.59728961176390E-16
     -5.18236123599547E-16  -2.45587526214926E-16   1.71059523875881E-16  -1.41414349614743E-17  -3.03060031742301E-09
     -2.41050466650798E-16   4.97235683609032E-09   2.79234991699779E-16  -1.94202757131578E-09  -3.81845250486907E-17
      3.03059997025445E-09  -1.86784945256040E-17  -4.97262737053211E-09  -3.36474654845607E-17   1.94154354919750E-09
      5.23259600099609E-17
      1.00000000000000E+04
      8.00000000000000E-01   0.00000000000000E+00  -2.26771747599451E+01  -3.03840931016824E-13   2.56687304425142E-16
     -4.88124317332828E-16  -2.43156889567140E-16   1.57604407511863E-16  -1.35304148580287E-17  -4.72928819828983E-09
     -2.36343157056074E-16   7.81250993877008E-09   2.73829215345901E-16  -3.08322525675153E-09  -3.74860582891249E-17
      4.72928786778081E-09  -2.03441473690953E-17  -7.81251296692869E-09  -3.06723257780597E-17   3.08292200656220E-09
      5.10164731465022E-17
      1.00000000000000E+04
      8.00000000000000E-01   0.00000000000000E+00  -2.31771747599451E+01   3.03840931016824E-13   2.53981478419358E-16
     -4.52160589618473E-16  -2.41090482576407E-16   1.41627144441889E-16  -1.28909958429687E-17  -6.89448045133823E-09
     -2.31580444055576E-16   1.14578415086444E-08   2.68143295447315E-16  -4.56314406256949E-09  -3.65628513912443E-17
      6.89448014082196E-09  -2.24010343637979E-17  -1.14576240617498E-08  -2.70528128704175E-17   4.56308310201066E-09
      4.94538472341563E-17
      1.00000000000000E+04
      8.00000000000000E-01   0.00000000000000E+00  -2.36771747599451E+01   3.03840931016824E-13   2.51585485530428E-16
     -4.16393425558657E-16  -2.39342180562163E-16   1.26123797540054E-16  -1.22433049682765E-17  -9.43464957281728E-09
     -2.26932141369404E-16   1.57614444555667E-08   2.62456597837996E-16  -6.32598677591327E-09  -3.55244564682145E-17
      9.43464928256651E-09  -2.46533441610374E-17  -1.57606359323660E-08  -2.31144172754532E-17   6.32596818377027E-09
      4.77677614361727E-17
      1.00000000000000E+04
      8.00000000000000E-01   0.00000000000000E+00  -2.41771747599451E+01   1.51920465508412E-13   2.49459992891003E-16
     -3.81159334591968E-16  -2.37849882701429E-16   1.11529276205266E-16  -1.16101101895984E-17  -1.22161558106483E-08
     -2.22561125318368E-16   2.04981726496535E-08   2.57048689137392E-16  -8.28180116140348E-09  -3.44875638178895E-17
      1.22161555410199E-08  -2.68988675726602E-17  -2.04979565908999E-08  -1.91988064348318E-17   8.28133649532904E-09
      4.60976740065335E-17
      1.00000000000000E+04
      8.00000000000000E-01   0.00000000000000E+00  -2.46771747599451E+01  -3.03840931016824E-13   2.47563534916321E-16
     -3.48494107999526E-16  -2.36553448015047E-16   9.84943210355984E-17  -1.10100869013019E-17  -1.51065293804121E-08
     -2.18574654319007E-16   2.54409049949697E-08   2.52114255000205E-16  -1.03366682359841E-08  -3.35396006803011E-17
      1.51065291304149E-08  -2.89888805973479E-17  -2.54431972679194E-08  -1.55608069842568E-17   1.03360607913303E-08
      4.45496875803320E-17
      1.00000000000000E+04
      8.00000000000000E-01   0.00000000000000E+00  -2.51771747599451E+01  -1.51920465508412E-13   2.45859548976547E-16
     -3.20976032925192E-16  -2.35404795385168E-16   8.77003057985956E-17  -1.04547535914009E-17  -1.80020896265049E-08
     -2.15013922717417E-16   3.04164521608357E-08   2.47740721829369E-16  -1.24137615842174E-08  -3.27267991117108E-17
      1.80020893932597E-08  -3.08456262591477E-17  -3.04158508897589E-08  -1.23359264439722E-17   1.24144846799509E-08
      4.31815527033515E-17
      1.00000000000000E+04
      8.00000000000000E-01   0.00000000000000E+00  -2.56771747599451E+01   1.06344325855888E-12   2.44318564803306E-16
     -2.99502780237529E-16  -2.34369721951387E-16   7.92650186562518E-17  -9.94884285193079E-18  -2.08350398966024E-08
     -2.11870065521015E-16   3.52962894334313E-08   2.43931499964058E-16  -1.44602890774354E-08  -3.20614344414048E-17
      2.08350396763914E-08  -3.24484992823021E-17  -3.52953286745540E-08  -9.56177801104261E-18   1.44603975889527E-08
      4.20102772921934E-17
      1.00000000000000E+04
      8.00000000000000E-01   0.00000000000000E+00  -2.61771747599451E+01   9.11522793050471E-13   2.42917583864392E-16
     -2.83232403327193E-16  -2.33425345855330E-16   7.27845319137428E-17  -9.49223800907693E-18  -2.35680791581325E-08
     -2.09106418280565E-16   4.00120526032780E-08   2.40641565292123E-16  -1.64450530018345E-08  -3.15351470095447E-17
      2.35680789476862E-08  -3.38111655838568E-17  -4.00131318767733E-08  -7.21621943476021E-18   1.64447827094235E-08
      4.10273850189310E-17
      1.00000000000000E+04