DF-ISE text

Info {
  version   = 1.0
  type      = xyplot
  datasets  = [
    "frequency"
    "v(Ntop)" "v(Ptop)" "v(Pbot)" "a(Ntop,Ntop)" "c(Ntop,Ntop)"
    "a(Ntop,Ptop)" "c(Ntop,Ptop)" "a(Ntop,Pbot)" "c(Ntop,Pbot)" "a(Ptop,Ntop)"
    "c(Ptop,Ntop)" "a(Ptop,Ptop)" "c(Ptop,Ptop)" "a(Ptop,Pbot)" "c(Ptop,Pbot)"
    "a(Pbot,Ntop)" "c(Pbot,Ntop)" "a(Pbot,Ptop)" "c(Pbot,Ptop)" "a(Pbot,Pbot)"
    "c(Pbot,Pbot)" ]
  functions = [
    Frequency
    Voltage Voltage Voltage Admittance Capacitance
    Admittance Capacitance Admittance Capacitance Admittance
    Capacitance Admittance Capacitance Admittance Capacitance
    Admittance Capacitance Admittance Capacitance Admittance
    Capacitance ]
}

Data {
      1.00000000000000E+04
      8.00000000000000E-01   0.00000000000000E+00  -5.00000000000000E-02   7.59602327542059E-13   1.18286609408868E-15
     -2.83837947932012E-15  -1.07767860849951E-15  -1.44339649207897E-15  -1.05187485589534E-16  -2.83910721748648E-15
     -1.07767860880349E-15  -1.06344325855888E-12   1.07769001840189E-15   5.22428520940770E-16  -1.14095979932822E-20
     -1.44206032812426E-15  -1.05187485285571E-16   5.21104586810840E-16  -1.14099019700289E-20   0.00000000000000E+00
      1.05198895187164E-16
      1.00000000000000E+04
      8.00000000000000E-01   0.00000000000000E+00  -1.45555555555556E-01   6.07681862033647E-13   1.17872446689732E-15
     -2.81740442423344E-15  -1.07766642227127E-15  -1.33396614117302E-15  -1.01058044626316E-16  -2.81880108467274E-15
     -1.07766642260099E-15  -6.07681862033647E-13   1.07768235530012E-15   5.01985237874391E-16  -1.59327002743768E-20
     -1.33275681007904E-15  -1.01058044296600E-16   5.00778515947740E-16  -1.59330299935368E-20  -6.07681862033647E-13
      1.01073977326651E-16
      1.00000000000000E+04
      8.00000000000000E-01   0.00000000000000E+00  -3.28172839506173E-01   4.55761396525235E-13   1.17200035996437E-15
     -2.78462254086680E-15  -1.07762933440642E-15  -1.16608596539368E-15  -9.43710255582992E-17  -2.78531573929723E-15
     -1.07762933477837E-15   1.21536372406729E-12   1.07765858389432E-15   4.68921772699347E-16  -2.92491166937339E-20
     -1.16516895126820E-15  -9.43710251863752E-17   4.68011368687766E-16  -2.92494886271610E-20  -4.55761396525235E-13
      9.44002746747435E-17
      1.00000000000000E+04
      8.00000000000000E-01   0.00000000000000E+00  -6.77174759945130E-01   1.51920465508412E-13   1.16207112203888E-15
     -2.73896283802549E-15  -1.07746419910997E-15  -9.43961234129735E-16  -8.46069229291435E-17  -2.73923092371911E-15
     -1.07746419954593E-15  -2.43072744813459E-12   1.07754925793723E-15   4.20821784572227E-16  -8.50583918834206E-20
     -9.44066718079791E-16  -8.46069224931705E-17   4.20915997916946E-16  -8.50588278497197E-20   0.00000000000000E+00
      8.46919813206372E-17
      1.00000000000000E+04
      8.00000000000000E-01   0.00000000000000E+00  -1.17717475994513E+00   0.00000000000000E+00   1.15135505449624E-15
     -2.70070460258433E-15  -1.07667168489147E-15  -7.43876593481139E-16  -7.46833696049587E-17  -2.69685241228531E-15
     -1.07667168541138E-15  -6.07681862033647E-13   1.07699982834305E-15   3.72254273367436E-16  -3.28142932993949E-19
     -7.47789538803180E-16  -7.46833690850723E-17   3.76171655198623E-16  -3.28143452884051E-19  -1.51920465508412E-13
      7.50115125378468E-17
      1.00000000000000E+04
      8.00000000000000E-01   0.00000000000000E+00  -1.67717475994513E+00   1.06344325855888E-12   1.14169009786387E-15
     -2.68274190697082E-15  -1.07407109381892E-15  -6.11309053873724E-16  -6.76190040451365E-17  -2.66898326358693E-15
     -1.07407109446497E-15  -3.19032977567665E-12   1.07508929292928E-15   3.37195676079394E-16  -1.01819846544694E-18
     -6.25497422710432E-16  -6.76190033990783E-17   3.51388185904363E-16  -1.01819911150338E-18   1.51920465508412E-13
      6.86372025098757E-17
      1.00000000000000E+04
      8.00000000000000E-01   0.00000000000000E+00  -2.17717475994513E+00   7.59602327542059E-13   1.12922103045357E-15
     -2.64883581848550E-15  -1.06714649433732E-15  -5.09089810146226E-16  -6.20745361163813E-17  -2.61493299655902E-15
     -1.06714649519295E-15  -7.59602327542059E-13   1.06969009248336E-15   3.06080638095794E-16  -2.54359729166111E-18
     -5.44116077654255E-16  -6.20745352607559E-17   3.41103873161057E-16  -2.54359814728691E-18   3.03840931016824E-13
      6.46181334075910E-17
      1.00000000000000E+04
      8.00000000000000E-01   0.00000000000000E+00  -2.67717475994513E+00   6.07681862033647E-13   1.10924827870074E-15
     -2.53004151958785E-15  -1.05235372035736E-15  -4.24247358177690E-16  -5.68945583436940E-17  -2.46004038972870E-15
     -1.05235372151502E-15  -1.06344325855888E-12   1.05754802158503E-15   2.68556603284148E-16  -5.19430007026004E-18
     -4.93150460757232E-16  -5.68945571860457E-17   3.37472270848157E-16  -5.19430122790873E-18  -1.51920465508412E-13
      6.20888584129041E-17
      1.00000000000000E+04
      8.00000000000000E-01   0.00000000000000E+00  -3.17717475994513E+00   1.21536372406729E-12   1.07969411004679E-15
     -2.26694619214670E-15  -1.02803039490592E-15  -3.41748526451938E-16  -5.16637151411235E-17  -2.15706976087166E-15
     -1.02803039635352E-15  -2.43072744813459E-12   1.03684363921401E-15   2.21508352224211E-16  -8.81324286012176E-18
     -4.51031837350714E-16  -5.16637136935443E-17   3.30803910672030E-16  -8.81324430770313E-18   3.03840931016824E-13
      6.04769580008058E-17
      1.00000000000000E+04
      8.00000000000000E-01   0.00000000000000E+00  -3.67717475994513E+00   9.11522793050471E-13   1.04514738187415E-15
     -1.92325674084771E-15  -9.98412694820419E-16  -2.63694545092616E-16  -4.67346870539600E-17  -1.78559369914502E-15
     -9.98412696389196E-16  -1.36728418957571E-12   1.01109224685394E-15   1.74223516646764E-16  -1.26795504653591E-17
     -4.01160307810247E-16  -4.67346854852012E-17   3.11692179175675E-16  -1.26795520341192E-17   7.59602327542059E-13
      5.94142375184691E-17
      1.00000000000000E+04
      8.00000000000000E-01   0.00000000000000E+00  -4.17717475994513E+00   7.59602327542059E-13   1.01340285019291E-15
     -1.63093511707955E-15  -9.70721586384328E-16  -2.06929229509218E-16  -4.26812638088191E-17  -1.48311760424743E-15
     -9.70721587893493E-16  -1.97496605160935E-12   9.86741000384232E-16   1.39051378526790E-16  -1.60194124927434E-17
     -3.54748982564272E-16  -4.26812622996713E-17   2.86873780687625E-16  -1.60194140018926E-17   1.51920465508412E-13
      5.87006763016615E-17
      1.00000000000000E+04
      8.00000000000000E-01   0.00000000000000E+00  -4.67717475994513E+00   9.11522793050471E-13   9.87530409076620E-16
     -1.41759426888866E-15  -9.47966022329790E-16  -1.68452946423983E-16  -3.95643867470677E-17  -1.28056591815304E-15
     -9.47966023626314E-16  -2.27880698262618E-12   9.66607086308632E-16   1.16472548624817E-16  -1.86410626821857E-17
     -3.05778789379935E-16  -3.95643854505428E-17   2.53796922732606E-16  -1.86410639787104E-17  -1.51920465508412E-13
      5.82054494292075E-17
      1.00000000000000E+04
      8.00000000000000E-01   0.00000000000000E+00  -5.17717475994513E+00   7.59602327542059E-13   9.66376416908210E-16
     -1.24036521980978E-15  -9.29276348057175E-16  -1.40424924981164E-16  -3.71000688511993E-17  -1.13004934053290E-15
     -9.29276349058763E-16  -1.36728418957571E-12   9.50012102216769E-16   1.00353899613867E-16  -2.07357531598095E-17
     -2.51259649902948E-16  -3.71000678496141E-17   2.11189940353394E-16  -2.07357541613947E-17  -3.03840931016824E-13
      5.78358220101370E-17
      1.00000000000000E+04
      8.00000000000000E-01   0.00000000000000E+00  -5.67717475994513E+00   9.11522793050471E-13   9.48188634628081E-16
     -1.08130585553561E-15  -9.13161113060709E-16  -1.18455461799579E-16  -3.50275215675272E-17  -1.00053391086453E-15
     -9.13161113786088E-16  -4.55761396525235E-13   9.35670725657882E-16   8.71659019027659E-17  -2.25096118729885E-17
     -1.98923477745872E-16  -3.50275208421589E-17   1.67631324709175E-16  -2.25096125983577E-17  -1.51920465508412E-13
      5.75371334404032E-17
      1.00000000000000E+04
      8.00000000000000E-01   0.00000000000000E+00  -6.17717475994513E+00   0.00000000000000E+00   9.31793691481774E-16
     -9.50574576455954E-16  -8.98604869490041E-16  -1.01776559726291E-16  -3.31888219920256E-17  -8.92695971727620E-16
     -8.98604870027043E-16  -1.06344325855888E-12   9.22696552584158E-16   7.64667288304712E-17  -2.40916825573247E-17
     -1.59209860500308E-16  -3.31888214550230E-17   1.33902096455907E-16  -2.40916830943273E-17  -1.51920465508412E-13
      5.72805045489735E-17
      1.00000000000000E+04
      8.00000000000000E-01   0.00000000000000E+00  -6.67717475994513E+00   7.59602327542059E-13   9.16522112048829E-16
     -8.47628929639144E-16  -8.85025264912633E-16  -8.90991534012055E-17  -3.14968471362939E-17  -8.05005135271163E-16
     -8.85025265337030E-16  -3.03840931016824E-13   9.10579216575215E-16   6.77769666076734E-17  -2.55539512386852E-17
     -1.32015835921312E-16  -3.14968467119028E-17   1.10696374898962E-16  -2.55539516630763E-17   4.55761396525235E-13
      5.70507983748433E-17
      1.00000000000000E+04
      8.00000000000000E-01   0.00000000000000E+00  -7.17717475994513E+00   1.06344325855888E-12   9.01993766933685E-16
     -7.64092884483159E-16  -8.72090913371139E-16  -7.89269129253717E-17  -2.99028535627776E-17  -7.29977871631447E-16
     -8.72090913726687E-16   0.00000000000000E+00   8.99027819132462E-16   6.04441260157912E-17  -2.69369054073257E-17
     -1.12937642209905E-16  -2.99028532072355E-17   9.44525561792246E-17  -2.69369057628682E-17   4.55761396525235E-13
      5.68397589701003E-17
      1.00000000000000E+04
      8.00000000000000E-01   0.00000000000000E+00  -7.67717475994513E+00   3.03840931016824E-13   8.87981521940970E-16
     -6.93146124481643E-16  -8.59603348075627E-16  -7.03097006937852E-17  -2.83781738655876E-17  -6.64960629444334E-16
     -8.59603348385828E-16  -9.11522793050471E-13   8.87867811455518E-16   5.40288708905806E-17  -2.82644630699586E-17
     -9.86941151948489E-17  -2.83781735553941E-17   8.24049076680751E-17  -2.82644633801523E-17  -1.51920465508412E-13
      5.66426369355054E-17
      1.00000000000000E+04
      8.00000000000000E-01   0.00000000000000E+00  -8.17717475994513E+00   1.51920465508412E-13   8.74338518060505E-16
     -6.31172195795821E-16  -8.47433625953868E-16  -6.27574545728527E-17  -2.69048921068263E-17  -6.06058914728811E-16
     -8.47433626231903E-16  -7.59602327542059E-13   8.76985291049387E-16   4.82819162921269E-17  -2.95516648176293E-17
     -8.74672391307088E-17  -2.69048918288009E-17   7.29951544477755E-17  -2.95516650956556E-17   4.55761396525235E-13
      5.64565569238718E-17
      1.00000000000000E+04
      8.00000000000000E-01   0.00000000000000E+00  -8.67717475994513E+00  -6.07681862033647E-13   8.60958739743862E-16
     -5.74852038021474E-16  -8.35487760746117E-16  -5.60368057562755E-17  -2.54709789979443E-17  -5.52277342884768E-16
     -8.35487760999955E-16  -6.07681862033647E-13   8.66296477795833E-16   4.30542106736712E-17  -3.08087167969572E-17
     -7.83219425659063E-17  -2.54709787441122E-17   6.53346208613480E-17  -3.08087170507895E-17   3.03840931016824E-13
      5.62796957946340E-17
      1.00000000000000E+04
      8.00000000000000E-01   0.00000000000000E+00  -9.17717475994513E+00  -6.07681862033647E-13   8.47753059640065E-16
     -5.25435257141958E-16  -8.23685563635371E-16  -5.00269685693243E-17  -2.40674960048506E-17  -5.03967269179746E-16
     -8.23685563870109E-16  -7.59602327542059E-13   8.55728900625130E-16   3.82411060141966E-17  -3.20433367551847E-17
     -7.06991142759431E-17  -2.40674957701141E-17   5.89171786248652E-17  -3.20433369899211E-17   1.51920465508412E-13
      5.61108327599671E-17
      1.00000000000000E+04
      8.00000000000000E-01   0.00000000000000E+00  -9.67717475994513E+00   1.36728418957571E-12   8.34631887073201E-16
     -4.78349538629002E-16  -8.11945150552146E-16  -4.46248578986470E-17  -2.26867365212703E-17  -4.58990568904840E-16
     -8.11945150770802E-16   1.51920465508412E-13   8.45207488224880E-16   3.37281647548390E-17  -3.32623374548698E-17
     -6.41063815401738E-17  -2.26867363026163E-17   5.32257973410418E-17  -3.32623376735240E-17   3.03840931016824E-13
      5.59490739755038E-17
      1.00000000000000E+04
      8.00000000000000E-01   0.00000000000000E+00  -1.01771747599451E+01   3.03840931016824E-13   8.21490062416108E-16
     -4.35507319184107E-16  -8.00169266098711E-16  -3.97012371517467E-17  -2.13207963175229E-17  -4.17615072596959E-16
     -8.00169266301879E-16  -1.06344325855888E-12   8.34642137307171E-16   2.92809651568176E-17  -3.44728710055872E-17
     -5.77566156247814E-17  -2.13207961143562E-17   4.73400751454326E-17  -3.44728712087541E-17   3.03840931016824E-13
      5.57936673229557E-17
      1.00000000000000E+04
      8.00000000000000E-01   0.00000000000000E+00  -1.06771747599451E+01  -3.03840931016824E-13   8.08191829384553E-16
     -3.96070691338870E-16  -7.88231463730366E-16  -3.51914227731558E-17  -1.99603656543265E-17  -3.79512736636049E-16
     -7.88231463915130E-16  -1.82304558610094E-12   8.23914972209844E-16   2.42167386297970E-17  -3.56835082937587E-17
     -5.04453541684489E-17  -1.99603654695665E-17   3.94689333745391E-17  -3.56835084785188E-17   0.00000000000000E+00
      5.56438739475306E-17
      1.00000000000000E+04
      8.00000000000000E-01   0.00000000000000E+00  -1.11771747599451E+01   9.11522793050471E-13   7.94555285096635E-16
     -3.55733636966098E-16  -7.75961564260553E-16  -3.10341690649347E-17  -1.85937208363268E-17  -3.48469386491535E-16
     -7.75961564414010E-16  -2.43072744813459E-12   8.12866731500080E-16   1.62889005147265E-17  -3.69051670864818E-17
     -3.85922879410898E-17  -1.85937206828732E-17   2.38483924268477E-17  -3.69051672399356E-17  -4.55761396525235E-13
      5.54988879231983E-17
      1.00000000000000E+04
      8.00000000000000E-01   0.00000000000000E+00  -1.16771747599451E+01  -4.55761396525235E-13   7.80338670891975E-16
     -3.19955674321563E-16  -7.63132509579258E-16  -2.71069854023829E-17  -1.72061613128935E-17  -3.35223229499343E-16
     -7.63132509658064E-16  -3.03840931016824E-13   8.01284168386699E-16  -2.09931085161096E-18  -3.81516587300505E-17
     -1.06675512109487E-17  -1.72061612340877E-17  -1.85496234888615E-17  -3.81516588088563E-17   0.00000000000000E+00
      5.53578200421481E-17
      1.00000000000000E+04
      8.00000000000000E-01   0.00000000000000E+00  -1.21771747599451E+01  -1.51920465508412E-13   7.65239056625183E-16
     -2.81161108422174E-16  -7.49458280601332E-16  -2.33034625322509E-17  -1.57807760239964E-17  -3.72437122386542E-16
     -7.49458280474043E-16  -4.55761396525235E-13   7.88897314718189E-16  -5.67716099085918E-17  -3.94390342444099E-17
      6.80398019397585E-17  -1.57807761512864E-17  -1.48108161374074E-16  -3.94390341171199E-17  -1.51920465508412E-13
      5.52198102683845E-17
      1.00000000000000E+04
      8.00000000000000E-01   0.00000000000000E+00  -1.26771747599451E+01   7.59602327542059E-13   7.48934420101715E-16
     -2.42325740217518E-16  -7.34631579446437E-16  -1.95398658172350E-17  -1.43028406553923E-17  -5.61968003275486E-16
     -7.34631578733247E-16  -1.36728418957571E-12   7.75413165204993E-16  -2.34168673335274E-16  -4.07815864728484E-17
      2.99691991461618E-16  -1.43028413685822E-17  -5.53408675602879E-16  -4.07815857596586E-17   0.00000000000000E+00
      5.50844271275077E-17
      1.00000000000000E+04
      8.00000000000000E-01   0.00000000000000E+00  -1.31771747599451E+01   1.21536372406729E-12   7.31236693407579E-16
     -2.02030982931218E-16  -7.18464439113578E-16  -1.57793944898201E-17  -1.27722542941417E-17  -1.19269252896454E-15
     -7.18464436763250E-16  -1.06344325855888E-12   7.60644799758846E-16  -8.18462694351457E-16  -4.21803629972037E-17
      9.74573557733799E-16  -1.27722566444700E-17  -1.80880540495662E-15  -4.21803606468754E-17  -1.51920465508412E-13
      5.49526172911455E-17
      1.00000000000000E+04
      8.00000000000000E-01   0.00000000000000E+00  -1.36771747599451E+01   0.00000000000000E+00   7.12432399848138E-16
     -1.61682508697779E-16  -7.01205013516801E-16  -1.21082626107255E-17  -1.12273863314336E-17  -3.06002519428468E-15
     -7.01205006740692E-16  -2.73456837915141E-12   7.44805890540927E-16  -2.72387680182998E-15  -4.36008838018758E-17
      2.88645497372993E-15  -1.12273931075445E-17  -5.62244316619863E-15  -4.36008770257650E-17   1.51920465508412E-13
      5.48282701331918E-17
      1.00000000000000E+04
      8.00000000000000E-01   0.00000000000000E+00  -1.41771747599451E+01   1.36728418957571E-12   6.93689539420017E-16
     -1.24178918356411E-16  -6.83922188720351E-16  -8.78598591504719E-18  -9.76735069970876E-18  -8.28943080014758E-15
     -6.83922170333466E-16  -9.11522793050471E-13   7.28874003298623E-16  -8.81267815244048E-15  -4.49518329668634E-17
      8.15724044654980E-15  -9.76736908659789E-18  -1.69786985720788E-14  -4.49518145799743E-17   0.00000000000000E+00
      5.47191836667152E-17
      1.00000000000000E+04
      8.00000000000000E-01   0.00000000000000E+00  -1.46771747599451E+01   0.00000000000000E+00   6.76927157868951E-16
     -9.23482713555252E-17  -6.68397904057520E-16  -6.11953427090272E-18  -8.52925381149838E-18  -2.25874518262698E-14
     -6.68397855545497E-16   1.51920465508412E-13   7.14503054788037E-16  -2.77495868774062E-14  -4.61051992429340E-17
      2.24890755537971E-14  -8.52930232352285E-18  -5.02447723649339E-14  -4.61051507309095E-17  -1.51920465508412E-13
      5.46344530543764E-17
      1.00000000000000E+04
      8.00000000000000E-01   0.00000000000000E+00  -1.51771747599451E+01  -6.07681862033647E-13   6.63726722707709E-16
     -7.15034424623753E-17  -6.56122496315065E-16  -4.18738661970829E-18  -7.60422639278783E-18  -6.15288642315207E-14
     -6.56122369010173E-16   1.36728418957571E-12   7.03096395831346E-16  -8.47669830057793E-14  -4.69740268216516E-17
      6.14532720373115E-14  -7.60435369767854E-18  -1.46224463433833E-13  -4.69738995167609E-17   4.55761396525235E-13
      5.45782532143256E-17
      1.00000000000000E+04
      8.00000000000000E-01   0.00000000000000E+00  -1.56771747599451E+01   1.21536372406729E-12   6.54358160487678E-16
     -5.77518346436602E-17  -6.47377288857443E-16  -2.74337421740620E-18  -6.98087163021451E-18  -1.67407842339357E-13
     -6.47376953809630E-16   3.79801163771029E-12   6.94943065290518E-16  -2.50363818920121E-13  -4.75661114809277E-17
      1.67346552862308E-13  -6.98120667802749E-18  -4.17713109768283E-13  -4.75657764331148E-17   4.55761396525235E-13
      5.45469831104955E-17
      1.00000000000000E+04
      8.00000000000000E-01   0.00000000000000E+00  -1.61771747599451E+01  -1.51920465508412E-13   6.48049273012883E-16
     -5.11962841840310E-17  -6.41467891141801E-16  -1.37830264645893E-18  -6.58138187108558E-18  -4.51765581739825E-13
     -6.41467012110852E-16   3.03840931016824E-12   6.89418623736833E-16  -7.13242964062984E-13  -4.79516116256467E-17
      4.51713341082801E-13  -6.58226090203552E-18  -1.16495769101615E-12  -4.79507325946967E-17   6.07681862033647E-13
      5.45329934966316E-17
      1.00000000000000E+04
      8.00000000000000E-01   0.00000000000000E+00  -1.66771747599451E+01   6.07681862033647E-13   6.43802008241335E-16
     -4.59384744119479E-17  -6.37478172995932E-16   4.32669562746203E-19  -6.32383524536153E-18  -1.19718163481803E-12
     -6.37475900156874E-16   5.62105722381124E-12   6.85681004988555E-16  -1.95643109958226E-12  -4.82051048322533E-17
      1.19713547535576E-12  -6.32610808442155E-18  -3.15356613624780E-12  -4.82028319931933E-17   1.97496605160935E-12
      5.45289400775510E-17
      1.00000000000000E+04
      8.00000000000000E-01   0.00000000000000E+00  -1.71771747599451E+01   6.07681862033647E-13   6.40839513138884E-16
     -4.61584872288169E-17  -6.34689854225125E-16   3.54072363605925E-18  -6.14965891388116E-18  -3.08845510801513E-12
     -6.34684120909124E-16   1.00267507235552E-11   6.83063199890926E-16  -5.15944582329184E-12  -4.83790789816706E-17
      3.08841300570623E-12  -6.15539222988422E-18  -8.24785527132691E-12  -4.83733456656676E-17   5.46913675830282E-12
      5.45287378952083E-17
      1.00000000000000E+04
      8.00000000000000E-01   0.00000000000000E+00  -1.76771747599451E+01   3.03840931016824E-13   6.38663267983926E-16
     -5.02245023856806E-17  -6.32640135684505E-16   9.58943805215939E-18  -6.02313229938203E-18  -7.70689217245629E-12
     -6.32626129038119E-16   2.30919107572786E-11   6.81128922670602E-16  -1.30609366855648E-11  -4.85027936335866E-17
      7.70685136242973E-12  -6.03713894576925E-18  -2.07677784539357E-11  -4.84887869871994E-17   1.32170804992318E-11
      5.45259259327921E-17
      1.00000000000000E+04
      8.00000000000000E-01   0.00000000000000E+00  -1.81771747599451E+01  -1.51920465508412E-13   6.36976773795069E-16
     -6.58969474551715E-17  -6.31053341589773E-16   2.16293843710055E-17  -5.92343220536743E-18  -1.85138503674494E-11
     -6.31020379876806E-16   5.52990494450619E-11   6.79607466143550E-16  -3.16780119930462E-11  -4.85870862685729E-17
      1.85138066183756E-11  -5.95639391833936E-18  -5.01917969830393E-11  -4.85541245556009E-17   3.17513772912581E-11
      5.45105184740733E-17
      1.00000000000000E+04
      8.00000000000000E-01   0.00000000000000E+00  -1.86771747599451E+01  -6.07681862033647E-13   6.35607257724968E-16
     -9.65241609202581E-17  -6.29769397575611E-16   4.43398488856101E-17  -5.83786014938092E-18  -4.26378097714395E-11
     -6.29695026689233E-16   1.18497963096561E-10   6.78321415117004E-16  -7.34298070715838E-11  -4.86263884283774E-17
      4.26377567668014E-11  -5.91223103576111E-18  -1.16067519518955E-10  -4.85520175419971E-17   7.35295053060713E-11
      5.44642485776029E-17
      1.00000000000000E+04
      8.00000000000000E-01   0.00000000000000E+00  -1.91771747599451E+01  -6.07681862033647E-13   6.34453705972790E-16
     -1.55129144549778E-16  -6.28696262104775E-16   8.19491674197855E-17  -5.75744386806354E-18  -9.37333233301817E-11
     -6.28536174728521E-16   2.55682143450657E-10   6.77132656695882E-16  -1.62120341596261E-10  -4.85964819673843E-17
      9.37332510135016E-11  -5.91753124431967E-18  -2.55853510683977E-10  -4.84363945911281E-17   1.61643375300950E-10
      5.43539258347767E-17
      1.00000000000000E+04
      8.00000000000000E-01   0.00000000000000E+00  -1.96771747599451E+01   4.55761396525235E-13   6.33456758837179E-16
     -2.31915340113181E-16  -6.27782481665163E-16   1.31637027974141E-16  -5.67427717208096E-18  -1.95690752996596E-10
     -6.27455696574211E-16   5.40077254882404E-10   6.75905614813248E-16  -3.39347212049263E-10  -4.84499182408133E-17
      1.95690652841821E-10  -6.00106226303429E-18  -5.35037733232143E-10  -4.81231331498603E-17   3.38934558549267E-10
      5.41241954124043E-17
      1.00000000000000E+04
      8.00000000000000E-01   0.00000000000000E+00  -2.01771747599451E+01   0.00000000000000E+00   6.32581926149633E-16
     -3.06037203706776E-16  -6.27001752969491E-16   1.77689077340823E-16  -5.58017318008306E-18  -3.85607913746323E-10
     -6.26373819419823E-16   1.05599915574897E-09   6.74488608838583E-16  -6.69455477091730E-10  -4.81147894202386E-17
      3.85607785673665E-10  -6.20810672975509E-18  -1.05506308506973E-09  -4.74868558705663E-17   6.69513491495571E-10
      5.36949626000024E-17
      1.00000000000000E+04
      8.00000000000000E-01   0.00000000000000E+00  -2.06771747599451E+01   9.11522793050471E-13   6.31809788987700E-16
     -3.46739467696075E-16  -6.26343016292646E-16   2.01299574804155E-16  -5.46677269509504E-18  -7.12298328121169E-10
     -6.25216531122697E-16   1.94594924269725E-09   6.72723503640927E-16  -1.23639503558467E-09  -4.75069725177082E-17
      7.12298182677121E-10  -6.59325786504603E-18  -1.94869301698906E-09  -4.63804873477572E-17   1.23678450970398E-09
      5.29737452124784E-17
      1.00000000000000E+04
      8.00000000000000E-01   0.00000000000000E+00  -2.11771747599451E+01  -7.59602327542059E-13   6.31129305851566E-16
     -3.48229036582717E-16  -6.25801936932381E-16   1.99317102697827E-16  -5.32736891925657E-18  -1.22590188354680E-09
     -6.23929261045772E-16   3.35030202585701E-09   6.70493245586651E-16  -2.12476219937986E-09  -4.65639845426732E-17
      1.22590173437437E-09  -7.20004480586844E-18  -3.35066373444125E-09  -4.46913086560623E-17   2.12506347153166E-09
      5.18913534619184E-17
      1.00000000000000E+04
      8.00000000000000E-01   0.00000000000000E+00  -2.16771747599451E+01  -3.03840931016824E-13   6.30532516073271E-16
     -3.26629732355181E-16  -6.25372736144453E-16   1.82287724599454E-16  -5.15977992893341E-18  -1.95907075106555E-09
     -6.22499511365157E-16   5.34714462449957E-09   6.67789500219422E-16  -3.38634329704592E-09  -4.52899888551978E-17
      1.95907060632663E-09  -8.03300470823056E-18  -5.34541372108823E-09  -4.24167640759039E-17   3.38645909664801E-09
      5.04497687841002E-17
      1.00000000000000E+04
      8.00000000000000E-01   0.00000000000000E+00  -2.21771747599451E+01  -1.36728418957571E-12   6.30010850275873E-16
     -2.95670036717359E-16  -6.25042688950518E-16   1.59721101722028E-16  -4.96816132548219E-18  -2.91011548130183E-09
     -6.20967858817296E-16   7.92234843533266E-09   6.64744620745078E-16  -5.01114693668441E-09  -4.37767619284635E-17
      2.91011534532079E-09  -9.04299145870532E-18  -7.92126212229396E-09  -3.97019317952444E-17   5.01124847526047E-09
      4.87449232537123E-17
      1.00000000000000E+04
      8.00000000000000E-01   0.00000000000000E+00  -2.26771747599451E+01  -1.51920465508412E-13   6.29553899260101E-16
     -2.62556383196750E-16  -6.24792043106125E-16   1.36909209951199E-16  -4.76185615410293E-18  -4.04155555621309E-09
     -6.19411317235070E-16   1.09659230413282E-08   6.61585301612740E-16  -6.92666648191345E-09  -4.21739843775834E-17
      4.04155543028056E-09  -1.01425820251593E-17  -1.09682217752665E-08  -3.67932585065355E-17   6.92650978392502E-09
      4.69358405313458E-17
      1.00000000000000E+04
      8.00000000000000E-01   0.00000000000000E+00  -2.31771747599451E+01  -1.51920465508412E-13   6.29150361609200E-16
     -2.33691249271685E-16  -6.24598462319973E-16   1.17181441378085E-16  -4.55189928937398E-18  -5.29540500979032E-09
     -6.17909426975733E-16   1.43244287723226E-08   6.58538812370365E-16  -9.02669285671396E-09  -4.06293853955527E-17
      5.29540489328945E-09  -1.12409346336158E-17  -1.43220976328177E-08  -3.39403500513183E-17   9.02620253771678E-09
      4.51812846846765E-17
      1.00000000000000E+04
      8.00000000000000E-01   0.00000000000000E+00  -2.36771747599451E+01   0.00000000000000E+00   6.28789668594462E-16
     -2.10693835959754E-16  -6.24441994088011E-16   1.01854255279443E-16  -4.34767450653963E-18  -6.61291251680581E-09
     -6.16518235356513E-16   1.78219417292573E-08   6.55762503934830E-16  -1.12068930658068E-08  -3.92442685792226E-17
      6.61291240755690E-09  -1.22714332380375E-17  -1.78198053715265E-08  -3.13205098477269E-17   1.12073246610210E-08
      4.35919430852873E-17
      1.00000000000000E+04
      8.00000000000000E-01   0.00000000000000E+00  -2.41771747599451E+01  -4.55761396525235E-13   6.28463028370821E-16
     -1.94748195677870E-16  -6.24307651754088E-16   9.03891838749408E-17  -4.15537661672302E-18  -7.94719231106879E-09
     -6.15263811938881E-16   2.13360140169324E-08   6.53328120696331E-16  -1.33866159346572E-08  -3.80643087587843E-17
      7.94719220653242E-09  -1.31992164319259E-17  -2.13338080507982E-08  -2.90204689435870E-17   1.33864718182737E-08
      4.22196853752280E-17
      1.00000000000000E+04
      8.00000000000000E-01   0.00000000000000E+00  -2.46771747599451E+01  -6.07681862033647E-13   6.28163643393991E-16
     -1.82579858379414E-16  -6.24185521101138E-16   8.15075873421385E-17  -3.97812229296912E-18  -9.26660329680518E-09
     -6.14149067686272E-16   2.47803548109391E-08   6.51242560645187E-16  -1.55137910456280E-08  -3.70934929594560E-17
      9.26660319616119E-09  -1.40145757078400E-17  -2.47803941602937E-08  -2.70570395445912E-17   1.55133583353915E-08
      4.10716152513184E-17
      1.00000000000000E+04
      8.00000000000000E-01   0.00000000000000E+00  -2.51771747599451E+01  -6.07681862033647E-13   6.27886437524728E-16
     -1.71592703361245E-16  -6.24069643003586E-16   7.40925159086089E-17  -3.81679452130258E-18  -1.05525949107103E-08
     -6.13163752099255E-16   2.81116667786075E-08   6.49476602154326E-16  -1.75601190170968E-08  -3.63128500549478E-17
      1.05525948129183E-08  -1.47226854256395E-17  -2.81127137559386E-08  -2.54069591506147E-17   1.75606385285828E-08
      4.01296445762263E-17
      1.00000000000000E+04
      8.00000000000000E-01   0.00000000000000E+00  -2.56771747599451E+01   1.51920465508412E-13   6.27627644380516E-16
     -1.62521418023815E-16  -6.23956713065699E-16   6.74806347245009E-17  -3.67093131494630E-18  -1.17959026949597E-08
     -6.12292223245807E-16   3.13070099296460E-08   6.47986780056652E-16  -1.95136752633662E-08  -3.56945568115319E-17
      1.17959026005141E-08  -1.53354211348410E-17  -3.13095777963878E-08  -2.40300669916445E-17   1.95132722717624E-08
      3.93654881258838E-17
      1.00000000000000E+04
      8.00000000000000E-01   0.00000000000000E+00  -2.61771747599451E+01  -3.03840931016824E-13   6.27384436921681E-16
     -1.51526712298422E-16  -6.23845048045176E-16   6.13887149965327E-17  -3.53938887667770E-18  -1.29931182391480E-08
     -6.11518010578722E-16   3.43638016161407E-08   6.46728006354099E-16  -2.13724961492203E-08  -3.52099957756359E-17
      1.29931181482783E-08  -1.58664263431257E-17  -3.43656142360717E-08  -2.28829583092067E-17   2.13723230081889E-08
      3.87493846520217E-17
      1.00000000000000E+04