DF-ISE text

Info {
  version   = 1.0
  type      = xyplot
  datasets  = [
    "frequency"
    "v(Ntop)" "v(Ptop)" "v(Pbot)" "a(Ntop,Ntop)" "c(Ntop,Ntop)"
    "a(Ntop,Ptop)" "c(Ntop,Ptop)" "a(Ntop,Pbot)" "c(Ntop,Pbot)" "a(Ptop,Ntop)"
    "c(Ptop,Ntop)" "a(Ptop,Ptop)" "c(Ptop,Ptop)" "a(Ptop,Pbot)" "c(Ptop,Pbot)"
    "a(Pbot,Ntop)" "c(Pbot,Ntop)" "a(Pbot,Ptop)" "c(Pbot,Ptop)" "a(Pbot,Pbot)"
    "c(Pbot,Pbot)" ]
  functions = [
    Frequency
    Voltage Voltage Voltage Admittance Capacitance
    Admittance Capacitance Admittance Capacitance Admittance
    Capacitance Admittance Capacitance Admittance Capacitance
    Admittance Capacitance Admittance Capacitance Admittance
    Capacitance ]
}

Data {
      1.00000000000000E+04
      8.00000000000000E-01   0.00000000000000E+00  -5.00000000000000E-02   3.03840931016824E-13   7.85737951229306E-16
     -1.37388434459549E-15  -6.80549672027432E-16  -1.14690480303750E-15  -1.05188279201948E-16  -1.37513558972447E-15
     -6.80549672132488E-16  -2.43072744813459E-12   6.80560548703757E-16   2.75976593275721E-16  -1.08765719007745E-20
     -1.14559341286847E-15  -1.05188279096907E-16   2.74672004619512E-16  -1.08766769497727E-20  -3.03840931016824E-13
      1.05199155773633E-16
      1.00000000000000E+04
      8.00000000000000E-01   0.00000000000000E+00  -1.45555555555556E-01   3.03840931016824E-13   7.81597310357287E-16
     -1.36327078093238E-15  -6.80538170661799E-16  -1.05100028826786E-15  -1.01059139695555E-16  -1.36445059809756E-15
     -6.80538170789267E-16  -1.36728418957571E-12   6.80553359390312E-16   2.65209129557372E-16  -1.51886012165801E-20
     -1.04980921792526E-15  -1.01059139568091E-16   2.64019650032842E-16  -1.51887286820773E-20  -3.03840931016824E-13
      1.01074328295969E-16
      1.00000000000000E+04
      8.00000000000000E-01   0.00000000000000E+00  -3.28172839506173E-01   4.55761396525235E-13   7.74876172819984E-16
     -1.34647456079147E-15  -6.80503175916907E-16  -9.04695996994365E-16  -9.43729969031151E-17  -1.34742323897950E-15
     -6.80503176081276E-16  -2.12688651711777E-12   6.80531058858617E-16   2.47815065899188E-16  -2.78827774593903E-20
     -9.03794121649409E-16  -9.43729967387538E-17   2.46914395506362E-16  -2.78829418224207E-20  -1.51920465508412E-13
      9.44008796802640E-17
      1.00000000000000E+04
      8.00000000000000E-01   0.00000000000000E+00  -6.77174759945130E-01   6.07681862033647E-13   7.64959935336054E-16
     -1.32437194183479E-15  -6.80347444521966E-16  -7.13352149587769E-16  -8.46124908141324E-17  -1.32427774530009E-15
     -6.80347444742293E-16  -7.59602327542059E-13   6.80428517629878E-16   2.22604253367915E-16  -8.10728887518789E-20
     -7.13428841962915E-16  -8.46124905937968E-17   2.22672110877658E-16  -8.10731090824885E-20  -1.51920465508412E-13
      8.46935637024236E-17
      1.00000000000000E+04
      8.00000000000000E-01   0.00000000000000E+00  -1.17717475994513E+00   4.55761396525235E-13   7.54305172274855E-16
     -1.31140325099669E-15  -6.79601004907339E-16  -5.43737449923565E-16  -7.47041673676074E-17  -1.30768926341221E-15
     -6.79601005201226E-16  -3.03840931016824E-12   6.79913575309468E-16   1.97397314551124E-16  -3.12570108640620E-19
     -5.47454911267296E-16  -7.47041670737231E-17   2.01116642772339E-16  -3.12570402525450E-19  -3.03840931016824E-13
      7.50167374759274E-17
      1.00000000000000E+04
      8.00000000000000E-01   0.00000000000000E+00  -1.67717475994513E+00   7.59602327542059E-13   7.44840042643683E-16
     -1.31893469495437E-15  -6.77158009602761E-16  -4.32722181851591E-16  -6.76820330409812E-17  -1.30538972639459E-15
     -6.77158010008019E-16  -6.07681862033647E-13   6.78126455441047E-16   1.79421938552495E-16  -9.68445432550604E-19
     -4.46206194950406E-16  -6.76820326357267E-17   1.92904750224577E-16  -9.68445837805547E-19   4.55761396525235E-13
      6.86504784733767E-17
      1.00000000000000E+04
      8.00000000000000E-01   0.00000000000000E+00  -2.17717475994513E+00  -1.51920465508412E-13   7.32911222068879E-16
     -1.32779287100560E-15  -6.70679892245097E-16  -3.48401992375957E-16  -6.22313298238187E-17  -1.29456462500879E-15
     -6.70679892835975E-16  -1.51920465508412E-13   6.73093382165723E-16   1.63067958378765E-16  -2.41348933056435E-18
     -3.81578221324051E-16  -6.22313292329359E-17   1.96237912246808E-16  -2.41348992144646E-18  -1.51920465508412E-13
      6.46448191544275E-17
      1.00000000000000E+04
      8.00000000000000E-01   0.00000000000000E+00  -2.67717475994513E+00  -1.67112512059253E-12   7.14118656454642E-16
     -1.28883872784845E-15  -6.56901540456328E-16  -2.82628723028455E-16  -5.72171159983717E-17  -1.22380106618105E-15
     -6.56901541314793E-16   0.00000000000000E+00   6.61817113562845E-16   1.41820980235729E-16  -4.91557224840521E-18
     -3.47685428486013E-16  -5.72171151399114E-17   2.06874875096659E-16  -4.91557310686582E-18  -1.51920465508412E-13
      6.21326882470462E-17
      1.00000000000000E+04
      8.00000000000000E-01   0.00000000000000E+00  -3.17717475994513E+00   3.03840931016824E-13   6.86495092330157E-16
     -1.15790763508973E-15  -6.34284388894721E-16  -2.21576505790097E-16  -5.22107034354735E-17  -1.05488252266545E-15
     -6.34284390011456E-16  -1.36728418957571E-12   6.42612174461995E-16   1.13537405035666E-16  -8.32778445139130E-18
     -3.24570230744206E-16  -5.22107023187466E-17   2.16543177946276E-16  -8.32778556811902E-18   3.03840931016824E-13
      6.05384878865272E-17
      1.00000000000000E+04
      8.00000000000000E-01   0.00000000000000E+00  -3.67717475994513E+00   1.21536372406729E-12   6.54186852541743E-16
     -9.64603641608605E-16  -6.06682476143463E-16  -1.64007865380288E-16  -4.75043763983407E-17  -8.34974552767986E-16
     -6.06682477374989E-16  -1.06344325855888E-12   6.18667848046717E-16   8.43716100827907E-17  -1.19853706725660E-17
     -2.93716641064136E-16  -4.75043751668134E-17   2.14075140336556E-16  -1.19853719040937E-17   6.07681862033647E-13
      5.94897470707782E-17
      1.00000000000000E+04
      8.00000000000000E-01   0.00000000000000E+00  -4.17717475994513E+00   9.11522793050471E-13   6.24510206350359E-16
     -8.00175709624826E-16  -5.80878835737445E-16  -1.23133414864014E-16  -4.36313706130142E-17  -6.59878886056443E-16
     -5.80878836929469E-16  -2.27880698262618E-12   5.96032646675296E-16   6.32297313745499E-17  -1.51538097459654E-17
     -2.63398123600455E-16  -4.36313694209966E-17   2.03496564764640E-16  -1.51538109379837E-17  -3.03840931016824E-13
      5.87851803586951E-17
      1.00000000000000E+04
      8.00000000000000E-01   0.00000000000000E+00  -4.67717475994513E+00  -1.51920465508412E-13   6.00581080395216E-16
     -6.84672979953687E-16  -5.59910036216926E-16  -9.61077371070872E-17  -4.06710441783616E-17  -5.53100288390852E-16
     -5.59910037235705E-16  -3.03840931016824E-13   5.77536243041072E-16   5.07372380870376E-17  -1.76262058044168E-17
     -2.27669444690244E-16  -4.06710431595842E-17   1.82308231711029E-16  -1.76262068231943E-17   3.03840931016824E-13
      5.82972499822077E-17
      1.00000000000000E+04
      8.00000000000000E-01   0.00000000000000E+00  -5.17717475994513E+00   0.00000000000000E+00   5.81428187847411E-16
     -5.85219767204745E-16  -5.43064256446708E-16  -7.68129368782011E-17  -3.83639314007670E-17  -4.77757327467761E-16
     -5.43064257216215E-16  -7.59602327542059E-13   5.62636012755806E-16   4.23161136478045E-17  -1.95717555400477E-17
     -1.84304498042841E-16  -3.83639306312644E-17   1.49804326883607E-16  -1.95717563095507E-17  -1.51920465508412E-13
      5.79356869396722E-17
      1.00000000000000E+04
      8.00000000000000E-01   0.00000000000000E+00  -5.67717475994513E+00  -1.51920465508412E-13   5.65379921189153E-16
     -4.88996466808677E-16  -5.28920939299268E-16  -6.17495538075436E-17  -3.64589818899114E-17  -4.10497691230824E-16
     -5.28920939827175E-16   1.21536372406729E-12   5.50108408864185E-16   3.53054435266342E-17  -2.11874690382075E-17
     -1.40247219747802E-16  -3.64589813620085E-17   1.13799514767619E-16  -2.11874695661109E-17  -3.03840931016824E-13
      5.76464509278642E-17
      1.00000000000000E+04
      8.00000000000000E-01   0.00000000000000E+00  -6.17717475994513E+00  -1.36728418957571E-12   5.51280464426210E-16
     -4.10954014933056E-16  -5.16479900700419E-16  -5.07271976839081E-17  -3.48005637258928E-17  -3.55275597247129E-16
     -5.16479901060027E-16  -2.73456837915141E-12   5.39079947417375E-16   2.97528402951743E-17  -2.26000463571231E-17
     -1.06375269016950E-16  -3.48005633662839E-17   8.54045550937889E-17  -2.26000467167318E-17  -3.03840931016824E-13
      5.74006100832502E-17
      1.00000000000000E+04
      8.00000000000000E-01   0.00000000000000E+00  -6.67717475994513E+00   9.11522793050471E-13   5.38458182828522E-16
     -3.54159605051050E-16  -5.05156510035576E-16  -4.29715417020743E-17  -3.33016727929795E-17  -3.13164975037270E-16
     -5.05156510295231E-16  -2.12688651711777E-12   5.29037699036871E-16   2.55686829800784E-17  -2.38811887417581E-17
     -8.39367989975980E-17  -3.33016725333282E-17   6.65364154564513E-17  -2.38811890014097E-17   6.07681862033647E-13
      5.71828615350242E-17
      1.00000000000000E+04
      8.00000000000000E-01   0.00000000000000E+00  -7.17717475994513E+00   1.21536372406729E-12   5.26526393414288E-16
     -3.12419433886552E-16  -4.94613230531904E-16  -3.72379792683532E-17  -3.19131628824327E-17  -2.80538853981213E-16
     -4.94613230732114E-16  -1.36728418957571E-12   5.19684865289271E-16   2.23015573772574E-17  -2.50716345570796E-17
     -6.91073834259920E-17  -3.19131626822246E-17   5.41774986611410E-17  -2.50716347572880E-17   0.00000000000000E+00
      5.69847974393648E-17
      1.00000000000000E+04
      8.00000000000000E-01   0.00000000000000E+00  -7.67717475994513E+00   1.21536372406729E-12   5.15252133438245E-16
     -2.79919429666482E-16  -4.84646224856750E-16  -3.26819932921256E-17  -3.06059085815256E-17  -2.53924071699669E-16
     -4.84646225019268E-16  -1.82304558610094E-12   5.10841860781201E-16   1.96054350498272E-17  -2.61956357622079E-17
     -5.87511871455957E-17  -3.06059084190093E-17   4.56886766051767E-17  -2.61956359247244E-17   1.51920465508412E-13
      5.68015443424811E-17
      1.00000000000000E+04
      8.00000000000000E-01   0.00000000000000E+00  -8.17717475994513E+00   7.59602327542059E-13   5.04486652461056E-16
     -2.53389263774506E-16  -4.75124940706548E-16  -2.88686462677718E-17  -2.93617117545418E-17  -2.31206504706880E-16
     -4.75124940843410E-16  -4.55761396525235E-13   5.02393358971561E-16   1.72862770307155E-17  -2.72684181278896E-17
     -5.11035354731802E-17  -2.93617116176819E-17   3.95281291352703E-17  -2.72684182647497E-17   3.03840931016824E-13
      5.66301298824046E-17
      1.00000000000000E+04
      8.00000000000000E-01   0.00000000000000E+00  -8.67717475994513E+00   3.03840931016824E-13   4.94129658812934E-16
     -2.30950461600093E-16  -4.65960972398459E-16  -2.56030439151379E-17  -2.81686864145495E-17  -2.11376937290052E-16
     -4.65960972516777E-16  -7.59602327542059E-13   4.94260953768208E-16   1.52331613071858E-17  -2.82999812521971E-17
     -4.52259331718326E-17  -2.81686862962294E-17   3.48460532355114E-17  -2.82999813705171E-17  -1.51920465508412E-13
      5.64686676664627E-17
      1.00000000000000E+04
      8.00000000000000E-01   0.00000000000000E+00  -9.17717475994513E+00   1.36728418957571E-12   4.84110231731943E-16
     -2.11474816116759E-16  -4.57091430768683E-16  -2.27962512354129E-17  -2.70188009633637E-17  -1.93707521845763E-16
     -4.57091430872901E-16  -1.82304558610094E-12   4.86388555393812E-16   1.33749314132369E-17  -2.92971245202078E-17
     -4.05849847113028E-17  -2.70188008591450E-17   3.11529043084499E-17  -2.92971246244265E-17   1.51920465508412E-13
      5.63159254835815E-17
      1.00000000000000E+04
      8.00000000000000E-01   0.00000000000000E+00  -9.67717475994513E+00   3.03840931016824E-13   4.74375935666947E-16
     -1.94323158185682E-16  -4.48469467163555E-16  -2.03859550364033E-17  -2.59064685034581E-17  -1.77880838284150E-16
     -4.48469467256350E-16  -3.19032977567665E-12   4.78734076451753E-16   1.16403011852606E-17  -3.02646091954040E-17
     -3.67895670308839E-17  -2.59064684106653E-17   2.80363295992385E-17  -3.02646092881970E-17   3.03840931016824E-13
      5.61710776990567E-17
      1.00000000000000E+04
      8.00000000000000E-01   0.00000000000000E+00  -1.01771747599451E+01   1.51920465508412E-13   4.64886175148832E-16
     -1.78904989884556E-16  -4.40058494442237E-16  -1.82839022932605E-17  -2.48276807066072E-17  -1.63861094107477E-16
     -4.40058494524349E-16   1.51920465508412E-13   4.71264367645251E-16   9.88597617418094E-18  -3.12058731209974E-17
     -3.31923486648733E-17  -2.48276806244972E-17   2.48054919894530E-17  -3.12058732031076E-17  -1.51920465508412E-13
      5.60335538264391E-17
      1.00000000000000E+04
      8.00000000000000E-01   0.00000000000000E+00  -1.06771747599451E+01   9.11522793050471E-13   4.55607954222116E-16
     -1.64789519578155E-16  -4.31828495797289E-16  -1.64254295745893E-17  -2.37794584248606E-17  -1.52604090775607E-16
     -4.31828495866423E-16   4.55761396525235E-13   4.63951981696002E-16   7.69141676466981E-18  -3.21234858283810E-17
     -2.86738706478296E-17  -2.37794583557253E-17   1.99327681472998E-17  -3.21234858975162E-17  -3.03840931016824E-13
      5.59029442528184E-17
      1.00000000000000E+04
      8.00000000000000E-01   0.00000000000000E+00  -1.11771747599451E+01   3.03840931016824E-13   4.46513162493723E-16
     -1.51939711568782E-16  -4.23753653081460E-16  -1.48082939466560E-17  -2.27595094123125E-17  -1.46457257635223E-16
     -4.23753653127873E-16  -2.43072744813459E-12   4.56773087145163E-16   3.68585061795189E-18  -3.30194340164179E-17
     -2.03416610786544E-17  -2.27595093659005E-17   9.21389135056724E-18  -3.30194340628300E-17   4.55761396525235E-13
      5.57789434289638E-17
      1.00000000000000E+04
      8.00000000000000E-01   0.00000000000000E+00  -1.16771747599451E+01  -4.55761396525235E-13   4.37576935398771E-16
     -1.40208777810347E-16  -4.15810905004865E-16  -1.33950233732312E-17  -2.17660303939745E-17  -1.54932286000389E-16
     -4.15810904995785E-16  -1.21536372406729E-12   4.49706192724788E-16  -6.65114336648410E-18  -3.38952877286499E-17
      1.19164985353688E-18  -2.17660304030567E-17  -2.12475913190672E-17  -3.38952877195679E-17   0.00000000000000E+00
      5.56613181227173E-17
      1.00000000000000E+04
      8.00000000000000E-01   0.00000000000000E+00  -1.21771747599451E+01   1.97496605160935E-12   4.28776845464538E-16
     -1.29423875297992E-16  -4.07979232726758E-16  -1.21297759721942E-17  -2.07976127378180E-17  -2.06852617969500E-16
     -4.07979232560106E-16  -1.21536372406729E-12   4.42731511700213E-16  -3.82114319641706E-17  -3.47522791397930E-17
      6.52583851869606E-17  -2.07976129044706E-17  -1.15603107753190E-16  -3.47522789731404E-17   1.51920465508412E-13
      5.55498918780944E-17
      1.00000000000000E+04
      8.00000000000000E-01   0.00000000000000E+00  -1.26771747599451E+01  -1.51920465508412E-13   4.20092816197613E-16
     -1.19332940862856E-16  -4.00239589795200E-16  -1.09817970234516E-17  -1.98532264024553E-17  -3.91672304699373E-16
     -4.00239589163929E-16  -6.07681862033647E-13   4.35830902482827E-16  -1.39185960777625E-16  -3.55913133187857E-17
      2.61311284569115E-16  -1.98532270337273E-17  -4.11463887357232E-16  -3.55913126875137E-17   3.03840931016824E-13
      5.54445397206185E-17
      1.00000000000000E+04
      8.00000000000000E-01   0.00000000000000E+00  -1.31771747599451E+01   1.36728418957571E-12   4.11507757390824E-16
     -1.09964286220979E-16  -3.92575487952770E-16  -9.92804745174656E-18  -1.89322694381156E-17  -9.77225246295506E-16
     -3.92575485954074E-16   1.21536372406729E-12   4.28988406069170E-16  -4.62143269536527E-16  -3.64129201141080E-17
      8.57314782557098E-16  -1.89322714368118E-17  -1.32938967548083E-15  -3.64129181154118E-17   1.51920465508412E-13
      5.53451895518012E-17
      1.00000000000000E+04
      8.00000000000000E-01   0.00000000000000E+00  -1.36771747599451E+01   1.36728418957571E-12   4.03008999558346E-16
     -1.01188394499723E-16  -3.84974321062569E-16  -8.94178550357135E-18  -1.80346784958441E-17  -2.74845740920169E-15
     -3.84974315098758E-16  -1.67112512059253E-12   4.22191464696130E-16  -1.47943447437111E-15  -3.72171495972892E-17
      2.63833175866604E-15  -1.80346844596566E-17  -4.12670447851338E-15  -3.72171436334767E-17  -1.51920465508412E-13
      5.52518280918952E-17
      1.00000000000000E+04
      8.00000000000000E-01   0.00000000000000E+00  -1.41771747599451E+01  -1.51920465508412E-13   3.94590630805409E-16
     -9.29525576111207E-17  -3.77429533975072E-16  -7.99807235080455E-18  -1.71610968303472E-17  -7.94808160749883E-15
     -3.77429516742091E-16  -1.21536372406729E-12   4.15432929412825E-16  -4.61811394793902E-15  -3.80034126709222E-17
      7.84708592447808E-15  -1.71611140633279E-17  -1.24731876977831E-14  -3.80033954379415E-17   0.00000000000000E+00
      5.51645095004488E-17
      1.00000000000000E+04
      8.00000000000000E-01   0.00000000000000E+00  -1.46771747599451E+01   7.59602327542059E-13   3.86256766004049E-16
     -8.53546773707138E-17  -3.69943678832443E-16  -7.07407778942378E-18  -1.63130871716115E-17  -2.28127189882793E-14
     -3.69943630296081E-16  -3.34225024118506E-12   4.08713906461652E-16  -1.40769863757580E-14  -3.87702761659840E-17
      2.27202324801835E-14  -1.63131357079738E-17  -3.68043045494912E-14  -3.87702276296218E-17   4.55761396525235E-13
      5.50833633363032E-17
      1.00000000000000E+04
      8.00000000000000E-01   0.00000000000000E+00  -1.51771747599451E+01  -1.82304558610094E-12   3.78025541071269E-16
     -7.84778822467009E-17  -3.62532186528463E-16  -6.14519590340820E-18  -1.54933545428206E-17  -6.41931760991608E-14
     -3.62532053176478E-16  -1.51920465508412E-12   4.02047293615118E-16  -4.18622103499644E-14  -3.95152404390854E-17
      6.41085890614896E-14  -1.54934878948063E-17  -1.05976943885508E-13  -3.95151070870998E-17  -3.03840931016824E-13
      5.50085949826335E-17
      1.00000000000000E+04
      8.00000000000000E-01   0.00000000000000E+00  -1.56771747599451E+01   9.11522793050471E-13   3.69933167978244E-16
     -7.21008430857889E-17  -3.55227259962874E-16  -5.17707827548279E-18  -1.47059080153766E-17  -1.76248852435712E-13
     -3.55226902838993E-16   3.79801163771029E-12   3.95461459293573E-16  -1.21261756321717E-13  -4.02345564558482E-17
      1.76171573854601E-13  -1.47062651392571E-17  -2.97438504574932E-13  -4.02341993319677E-17   4.55761396525235E-13
      5.49404644708011E-17
      1.00000000000000E+04
      8.00000000000000E-01   0.00000000000000E+00  -1.61771747599451E+01  -1.51920465508412E-13   3.62036742218294E-16
     -6.66085591941281E-17  -3.48080693540761E-16  -4.09875736514608E-18  -1.39560486775578E-17  -4.71034513220226E-13
     -3.48079762409852E-16   5.01337536177759E-12   3.89002930409218E-16  -3.41543387749270E-13  -4.09231679994364E-17
      4.70963833751118E-13  -1.39569798084651E-17  -8.12511323939702E-13  -4.09222368685291E-17   0.00000000000000E+00
      5.48792166773247E-17
      1.00000000000000E+04
      8.00000000000000E-01   0.00000000000000E+00  -1.66771747599451E+01  -3.03840931016824E-13   3.54413919032228E-16
     -6.23465962728152E-17  -3.41163870675126E-16  -2.74524291764203E-18  -1.32500483571486E-17  -1.22340449557472E-12
     -3.41161510008915E-16   5.62105722381124E-12   3.82736373588446E-16  -9.33608109286445E-13  -4.15748635800460E-17
      1.22333939569421E-12  -1.32524090233591E-17  -2.15695023483544E-12  -4.15725029138354E-17   9.11522793050471E-13
      5.48249119365627E-17
      1.00000000000000E+04
      8.00000000000000E-01   0.00000000000000E+00  -1.71771747599451E+01   1.51920465508412E-13   3.47157614289049E-16
     -6.02175646783954E-17  -3.34563194935317E-16  -7.34719145353699E-19  -1.25944193537696E-17  -3.08380656208533E-12
     -3.34557382648649E-16   8.05178467194583E-12   3.76740025554295E-16  -2.47173209152142E-12  -4.21826429056509E-17
      3.08374574056352E-12  -1.26002316404374E-17  -5.55547857482790E-12  -4.21768306189832E-17   1.97496605160935E-12
      5.47770622590794E-17
      1.00000000000000E+04
      8.00000000000000E-01   0.00000000000000E+00  -1.76771747599451E+01   3.03840931016824E-13   3.40365140324168E-16
     -6.18359543273575E-17  -3.28370343022790E-16   2.78219603234710E-18  -1.19947973014235E-17  -7.53367916836033E-12
     -3.28356464009517E-16   1.62554898094001E-11   3.71095564288791E-16  -6.32423301856210E-12  -4.27391002798855E-17
      7.53362008162832E-12  -1.20086763146959E-17  -1.38578503114238E-11  -4.27252212666131E-17   6.68450048237012E-12
      5.47338975809378E-17
      1.00000000000000E+04
      8.00000000000000E-01   0.00000000000000E+00  -1.81771747599451E+01  -1.51920465508412E-13   3.34123642433634E-16
     -7.10465732032502E-17  -3.22669007809652E-16   9.54618213621231E-18  -1.14546346240128E-17  -1.78085252680951E-11
     -3.22636919765856E-16   3.34225024118506E-11   3.65873236223692E-16  -1.56003846097232E-11  -4.32363164580358E-17
      1.78084637154018E-11  -1.14867226678078E-17  -3.34088387772180E-11  -4.32042284142408E-17   1.54958874818580E-11
      5.46909510821294E-17
      1.00000000000000E+04
      8.00000000000000E-01   0.00000000000000E+00  -1.86771747599451E+01   2.12688651711777E-12   3.28496146696216E-16
     -9.40546140019581E-17  -3.17522126840439E-16   2.27256219496798E-17  -1.09740198558148E-17  -4.06469265391355E-11
     -3.17450461440400E-16   8.21889718400508E-11   3.61114916409681E-16  -3.69980203737276E-11  -4.36644549689016E-17
      4.06468551834732E-11  -1.10456852558535E-17  -7.76448528500346E-11  -4.35927895688629E-17   3.72205140495609E-11
      5.46384748248200E-17
      1.00000000000000E+04
      8.00000000000000E-01   0.00000000000000E+00  -1.91771747599451E+01  -1.51920465508412E-13   3.23513081214118E-16
     -1.39832515011595E-16  -3.12964191463696E-16   4.68305418965127E-17  -1.05488897504412E-17  -8.93169223742031E-11
     -3.12810077221512E-16   1.73493171610606E-10   3.56818301566225E-16  -8.40784812526133E-11  -4.40082243440904E-17
      8.93168293921875E-11  -1.07030039926244E-17  -1.73395263812823E-10  -4.38541101019073E-17   8.41639378916601E-11
      5.45571140947264E-17
      1.00000000000000E+04
      8.00000000000000E-01   0.00000000000000E+00  -1.96771747599451E+01  -6.07681862033647E-13   3.19171941274607E-16
     -2.14470003460305E-16  -3.09001216529714E-16   8.50353459382275E-17  -1.01707247449163E-17  -1.88186958676723E-10
     -3.08683575204354E-16   3.71141697237050E-10   3.52924567286733E-16  -1.82319598503386E-10  -4.42409920834475E-17
      1.88186829255010E-10  -1.04883660702767E-17  -3.70506342751011E-10  -4.39233507580869E-17   1.82152638144586E-10
      5.44117168283570E-17
      1.00000000000000E+04
      8.00000000000000E-01   0.00000000000000E+00  -2.01771747599451E+01  -3.03840931016824E-13   3.15444083895710E-16
     -3.08254017690976E-16  -3.05617345494877E-16   1.32520477545123E-16  -9.82673840090730E-18  -3.78144638064663E-10
     -3.04993805129141E-16   7.56867759162908E-10   3.49312071438566E-16  -3.75251723095200E-10  -4.43182663091365E-17
      3.78144462333871E-10  -1.04502787666431E-17  -7.53396052905326E-10  -4.36947259434011E-17   3.75243549805777E-10
      5.41450047097318E-17
      1.00000000000000E+04
      8.00000000000000E-01   0.00000000000000E+00  -2.06771747599451E+01   0.00000000000000E+00   3.12284724212390E-16
     -3.88988104707000E-16  -3.02783916459818E-16   1.72931975669559E-16  -9.50080775259306E-18  -7.19864903244033E-10
     -3.01627275981197E-16   1.44856163862271E-09   3.45803311962529E-16  -7.28401615531591E-10  -4.41760359819252E-17
      7.19864687181672E-10  -1.06574482312138E-17  -1.44826612978546E-09  -4.30193955033045E-17   7.28762473043851E-10
      5.36768437348236E-17
      1.00000000000000E+04
      8.00000000000000E-01   0.00000000000000E+00  -2.11771747599451E+01   1.36728418957571E-12   3.09641482289544E-16
     -4.26180307061305E-16  -3.00465691647973E-16   1.90414278900663E-16  -9.17579064161726E-18  -1.28892727677051E-09
     -2.98455791793462E-16   2.61363968860672E-09   3.42199082665730E-16  -1.32429516625294E-09  -4.37432908723263E-17
      1.28892704097017E-09  -1.11856904961275E-17  -2.61322201681908E-09  -4.17333910178162E-17   1.32398685690581E-09
      5.29190815135928E-17
      1.00000000000000E+04
      8.00000000000000E-01   0.00000000000000E+00  -2.16771747599451E+01   9.11522793050471E-13   3.07458487085851E-16
     -4.20841552348389E-16  -2.98620841131224E-16   1.85366385739611E-16  -8.83764595467591E-18  -2.15708038809553E-09
     -2.95373483836439E-16   4.39961668112361E-09   3.38347906471801E-16  -2.24187541544455E-09  -4.29744226355493E-17
      2.15708015263351E-09  -1.20850032494603E-17  -4.39895538270305E-09  -3.97270653407672E-17   2.24219415043865E-09
      5.18120685899981E-17
      1.00000000000000E+04
      8.00000000000000E-01   0.00000000000000E+00  -2.21771747599451E+01   1.06344325855888E-12   3.05676523913983E-16
     -3.94039155582382E-16  -2.97196393751566E-16   1.69022719512737E-16  -8.48013016244599E-18  -3.36321971926128E-09
     -2.92336418010942E-16   6.88761814475487E-09   3.34224810943029E-16  -3.52396697690019E-09  -4.18883929319189E-17
      3.36321949419263E-09  -1.33401059030671E-17  -6.88718630205589E-09  -3.70284171913015E-17   3.52409903839863E-09
      5.03685230944481E-17
      1.00000000000000E+04
      8.00000000000000E-01   0.00000000000000E+00  -2.26771747599451E+01   1.36728418957571E-12   3.04232912851529E-16
     -3.60156417071777E-16  -2.96125941343743E-16   1.49401644809659E-16  -8.10697150781247E-18  -4.89179126162945E-09
     -2.89375932429885E-16   1.00484753501229E-08   3.29957617206690E-16  -5.15261603652675E-09  -4.05816847769194E-17
      4.89179105081420E-09  -1.48569804216712E-17  -1.00444069379432E-08  -3.38316758630607E-17   5.15223066725228E-09
      4.86886562846868E-17
      1.00000000000000E+04
      8.00000000000000E-01   0.00000000000000E+00  -2.31771747599451E+01   4.55761396525235E-13   3.03064387950044E-16
     -3.24579109263625E-16  -2.95334980508098E-16   1.29762910087274E-16  -7.72940744197282E-18  -6.67644660750571E-09
     -2.86570344042822E-16   1.37279890247366E-08   3.25766348857326E-16  -7.05279234948364E-09  -3.91960048139276E-17
      6.67644641268527E-09  -1.64940439072496E-17  -1.37292386324150E-08  -3.04313683486514E-17   7.05245184983149E-09
      4.69254122555208E-17
      1.00000000000000E+04
      8.00000000000000E-01   0.00000000000000E+00  -2.36771747599451E+01  -1.51920465508412E-13   3.02112316573510E-16
     -2.91739858354889E-16  -2.94751531710160E-16   1.12191737274496E-16  -7.36078486337740E-18  -8.62614958106815E-09
     -2.83997280451584E-16   1.77471968602272E-08   3.21861693190122E-16  -9.12175041016971E-09  -3.78644127380560E-17
      8.62614940145697E-09  -1.81150361219528E-17  -1.77478996994224E-08  -2.71101614794843E-17   9.12176051052157E-09
      4.52251976009238E-17
      1.00000000000000E+04
      8.00000000000000E-01   0.00000000000000E+00  -2.41771747599451E+01  -3.03840931016824E-13   3.01327041294097E-16
     -2.65044498859342E-16  -2.94315091802464E-16   9.80069895455095E-17  -7.01194949169058E-18  -1.06538697579533E-08
     -2.81701694703451E-16   2.19154386723815E-08   3.18376936207187E-16  -1.12616105631081E-08  -3.66752415044046E-17
      1.06538695908818E-08  -1.96253465907016E-17  -2.19154800559721E-08  -2.40618444054051E-17   1.12621679490696E-08
      4.36871909951785E-17
      1.00000000000000E+04
      8.00000000000000E-01   0.00000000000000E+00  -2.46771747599451E+01   1.36728418957571E-12   3.00669408576237E-16
     -2.45229387800643E-16  -2.93980021143720E-16   8.72602185335937E-17  -6.68938743255562E-18  -1.26928675396808E-08
     -2.79691038565196E-16   2.60889977008285E-08   3.15358169868724E-16  -1.33979124178109E-08  -3.56671313044079E-17
      1.26928673816544E-08  -2.09783700110808E-17  -2.60907797122141E-08  -2.13781487258846E-17   1.33981696941179E-08
      4.23565187363560E-17
      1.00000000000000E+04
      8.00000000000000E-01   0.00000000000000E+00  -2.51771747599451E+01   3.03840931016824E-13   3.00109911425319E-16
     -2.30798885435900E-16  -2.93714327295069E-16   7.91483659123200E-17  -6.39558413028539E-18  -1.46996622481364E-08
     -2.77946418202323E-16   3.01814312006941E-08   3.12789033794216E-16  -1.54829415294205E-08  -3.48426155925310E-17
      1.46996620965664E-08  -2.21634932230269E-17  -3.01826035468176E-08  -1.90747064997969E-17   1.54826704013588E-08
      4.12381997220370E-17
      1.00000000000000E+04
      8.00000000000000E-01   0.00000000000000E+00  -2.56771747599451E+01   1.51920465508412E-13   2.99626777638295E-16
     -2.19322649638704E-16  -2.93496517613674E-16   7.27046799882873E-17  -6.13026002466826E-18  -1.66498309047847E-08
     -2.76436171027377E-16   3.41410862137054E-08   3.10620836790868E-16  -1.74908212737774E-08  -3.41846657635288E-17
      1.66498307581366E-08  -2.31906066109731E-17  -3.41406519592363E-08  -1.71243191772245E-17   1.74909070349145E-08
      4.03149257880743E-17
      1.00000000000000E+04
      8.00000000000000E-01   0.00000000000000E+00  -2.61771747599451E+01   3.03840931016824E-13   2.99203994948312E-16
     -2.09321983238289E-16  -2.93312414996159E-16   6.71888204647208E-17  -5.89157995221755E-18  -1.85320854154183E-08
     -2.75125577916122E-16   3.79412247379328E-08   3.08794389357420E-16  -1.94106340228973E-08  -3.36688114397922E-17
      1.85320852732172E-08  -2.40784170322713E-17  -3.79427192289771E-08  -1.54819743597302E-17   1.94108778780098E-08
      3.95603913915043E-17
      1.00000000000000E+04