DF-ISE text

Info {
  version   = 1.0
  type      = xyplot
  datasets  = [
    "frequency"
    "v(Ntop)" "v(Ptop)" "v(Pbot)" "a(Ntop,Ntop)" "c(Ntop,Ntop)"
    "a(Ntop,Ptop)" "c(Ntop,Ptop)" "a(Ntop,Pbot)" "c(Ntop,Pbot)" "a(Ptop,Ntop)"
    "c(Ptop,Ntop)" "a(Ptop,Ptop)" "c(Ptop,Ptop)" "a(Ptop,Pbot)" "c(Ptop,Pbot)"
    "a(Pbot,Ntop)" "c(Pbot,Ntop)" "a(Pbot,Ptop)" "c(Pbot,Ptop)" "a(Pbot,Pbot)"
    "c(Pbot,Pbot)" ]
  functions = [
    Frequency
    Voltage Voltage Voltage Admittance Capacitance
    Admittance Capacitance Admittance Capacitance Admittance
    Capacitance Admittance Capacitance Admittance Capacitance
    Admittance Capacitance Admittance Capacitance Admittance
    Capacitance ]
}

Data {
      1.00000000000000E+04
      8.00000000000000E-01   0.00000000000000E+00  -5.00000000000000E-02   7.59602327542059E-13   7.87238872825528E-16
     -2.08789639803649E-15  -6.82058990828347E-16  -1.34791795160119E-15  -1.05179881997259E-16  -2.08939623119949E-15
     -6.82058991106943E-16  -2.58264791364300E-12   6.82075323095637E-16   4.32205837633485E-16  -1.63319892788414E-20
     -1.34643009071954E-15  -1.05179881718676E-16   4.30722101659999E-16  -1.63322678681583E-20   3.03840931016824E-13
      1.05196213986722E-16
      1.00000000000000E+04
      8.00000000000000E-01   0.00000000000000E+00  -1.45555555555556E-01  -1.51920465508412E-13   7.83088414979158E-16
     -2.07143226720296E-15  -6.82040861453617E-16  -1.24248049420385E-15  -1.01047553525580E-16  -2.07282206157642E-15
     -6.82040861758101E-16  -1.51920465508412E-12   6.82063672317974E-16   4.15337812334057E-16  -2.28105597189721E-20
     -1.24113035117245E-15  -1.01047553221103E-16   4.13988412925408E-16  -2.28108641976914E-20  -1.51920465508412E-13
      1.01070364084731E-16
      1.00000000000000E+04
      8.00000000000000E-01   0.00000000000000E+00  -3.28172839506173E-01  -4.55761396525235E-13   7.76337760486673E-16
     -2.04555478751649E-15  -6.81985615194994E-16  -1.08107831503269E-15  -9.43521452917358E-17  -2.04653346375491E-15
     -6.81985615542618E-16  -7.59602327542059E-13   6.82027510759098E-16   3.88102026286727E-16  -4.18952158707607E-20
     -1.08008606650983E-15  -9.43521449441217E-17   3.87112326144688E-16  -4.18955634872642E-20  -1.51920465508412E-13
      9.43940405066182E-17
      1.00000000000000E+04
      8.00000000000000E-01   0.00000000000000E+00  -6.77174759945130E-01  -1.51920465508412E-13   7.66292397912782E-16
     -2.01181786957429E-15  -6.81738808786984E-16  -8.68576552924908E-16  -8.45535891258115E-17  -2.01152419266635E-15
     -6.81738809202805E-16  -7.59602327542059E-13   6.81860860004720E-16   3.48701600235069E-16  -1.22050801462011E-19
     -8.68919555916488E-16  -8.45535887099742E-17   3.49035760949934E-16  -1.22051217293281E-19   1.51920465508412E-13
      8.46756399271809E-17
      1.00000000000000E+04
      8.00000000000000E-01   0.00000000000000E+00  -1.17717475994513E+00  -4.55761396525235E-13   7.55026053603846E-16
     -1.99499523044815E-15  -6.80542844860816E-16  -6.78973728668128E-16  -7.44832087430603E-17  -1.98921386779882E-15
     -6.80542845376651E-16  -1.06344325855888E-12   6.81016805485802E-16   3.09541365150606E-16  -4.73960108316110E-19
     -6.84718507211649E-16  -7.44832082272203E-17   3.15280285696324E-16  -4.73960624154583E-19  -4.55761396525235E-13
      7.49571688513396E-17
      1.00000000000000E+04
      8.00000000000000E-01   0.00000000000000E+00  -1.67717475994513E+00  -1.51920465508412E-13   7.43536788272292E-16
     -2.01146709663567E-15  -6.76532447585569E-16  -5.54484787923452E-16  -6.70043406868233E-17  -1.99057320943882E-15
     -6.76532448274542E-16  -1.82304558610094E-12   6.78025127911611E-16   2.81464080254972E-16  -1.49267963570568E-18
     -5.75418522524658E-16  -6.70043399978540E-17   3.02401417786936E-16  -1.49268032467573E-18  -3.03840931016824E-13
      6.84970203217461E-17
      1.00000000000000E+04
      8.00000000000000E-01   0.00000000000000E+00  -2.17717475994513E+00   1.06344325855888E-12   7.26019515341289E-16
     -2.01475800731237E-15  -6.65503464278426E-16  -4.55946322762855E-16  -6.05160510629089E-17  -1.96129818556919E-15
     -6.65503465293053E-16  -3.34225024118506E-12   6.69317956836904E-16   2.52838739974628E-16  -3.81449154250898E-18
     -5.09366325306089E-16  -6.05160500482886E-17   3.06258634713293E-16  -3.81449255712996E-18   3.03840931016824E-13
      6.43305426043913E-17
      1.00000000000000E+04
      8.00000000000000E-01   0.00000000000000E+00  -2.67717475994513E+00   7.59602327542059E-13   6.95206935776765E-16
     -1.87842143918395E-15  -6.41524641391995E-16  -3.63383608089394E-16  -5.36822943848038E-17  -1.77022705708769E-15
     -6.41524642916299E-16  -1.06344325855888E-12   6.49455334701032E-16   2.07985046678008E-16  -7.93069178399249E-18
     -4.71548767198119E-16  -5.36822928605152E-17   3.16161783965713E-16  -7.93069330828262E-18   0.00000000000000E+00
      6.16129861678525E-17
      1.00000000000000E+04
      8.00000000000000E-01   0.00000000000000E+00  -3.17717475994513E+00   9.11522793050471E-13   6.50624625724673E-16
     -1.52742016041234E-15  -6.04115877753678E-16  -2.64057147849921E-16  -4.65087479710121E-17  -1.35729101086968E-15
     -6.04115879745125E-16  -1.97496605160935E-12   6.17442686394347E-16   1.46145581267976E-16  -1.33268066484493E-17
     -4.34185115831219E-16  -4.65087459795704E-17   3.16277353815298E-16  -1.33268086398915E-17  -1.51920465508412E-13
      5.98355546187764E-17
      1.00000000000000E+04
      8.00000000000000E-01   0.00000000000000E+00  -3.67717475994513E+00   9.11522793050471E-13   6.05332043172379E-16
     -1.14056231920627E-15  -5.64999076330187E-16  -1.78268390497584E-16  -4.03329668422355E-17  -9.38584367562476E-16
     -5.64999078405528E-16  -6.07681862033647E-13   5.83370646423640E-16   9.32629254076275E-17  -1.83715680177770E-17
     -3.80279188228258E-16  -4.03329647669040E-17   2.95288472330871E-16  -1.83715700931092E-17   4.55761396525235E-13
      5.87045348603034E-17
      1.00000000000000E+04
      8.00000000000000E-01   0.00000000000000E+00  -4.17717475994513E+00   1.51920465508412E-13   5.70548041606967E-16
     -8.86813366151064E-16  -5.34612852471826E-16  -1.25330681622276E-16  -3.59351891351752E-17  -6.93368716117777E-16
     -5.34612854246877E-16  -1.21536372406729E-12   5.56684356377649E-16   6.42060590757313E-17  -2.20715021296287E-17
     -3.18735320767168E-16  -3.59351873601293E-17   2.57618005069160E-16  -2.20715039046749E-17   1.51920465508412E-13
      5.80066912647775E-17
      1.00000000000000E+04
      8.00000000000000E-01   0.00000000000000E+00  -4.67717475994513E+00   6.07681862033647E-13   5.45685487344339E-16
     -7.10502475710746E-16  -5.12800370165091E-16  -9.22540190187998E-17  -3.28851171792948E-17  -5.57811077282145E-16
     -5.12800371435375E-16  -2.43072744813459E-12   5.37467159393801E-16   4.88278633507248E-17  -2.46667879574796E-17
     -2.44967005713812E-16  -3.28851159090135E-17   2.01542097509910E-16  -2.46667892277610E-17  -1.51920465508412E-13
      5.75519051362406E-17
      1.00000000000000E+04
      8.00000000000000E-01   0.00000000000000E+00  -5.17717475994513E+00  -3.03840931016824E-13   5.26843556333973E-16
     -5.57985463855193E-16  -4.96245492194287E-16  -6.88363929183043E-17  -3.05980641397212E-17  -4.54288980068784E-16
     -4.96245492988696E-16  -7.59602327542059E-13   5.22869035056928E-16   3.80138789424877E-17  -2.66235420670079E-17
     -1.72536098196336E-16  -3.05980633453123E-17   1.41713248982872E-16  -2.66235428614171E-17  -4.55761396525235E-13
      5.72216062062069E-17
      1.00000000000000E+04
      8.00000000000000E-01   0.00000000000000E+00  -5.67717475994513E+00   0.00000000000000E+00   5.11395317827687E-16
     -4.43686262714388E-16  -4.82665179177526E-16  -5.30963812648897E-17  -2.87301386501854E-17  -3.76348275519698E-16
     -4.82665179666639E-16  -7.59602327542059E-13   5.10892809110678E-16   3.02746937126414E-17  -2.82276294431232E-17
     -1.20514988525631E-16  -2.87301381610730E-17   9.76796693778194E-17  -2.82276299322357E-17   4.55761396525235E-13
      5.69577680929315E-17
      1.00000000000000E+04
      8.00000000000000E-01   0.00000000000000E+00  -6.17717475994513E+00  -6.07681862033647E-13   4.97951588843555E-16
     -3.68089220733624E-16  -4.70843544738256E-16  -4.30418543907381E-17  -2.71080441053358E-17  -3.22218447085318E-16
     -4.70843545064039E-16  -2.43072744813459E-12   5.00468547007993E-16   2.49653060805585E-17  -2.96250019427112E-17
     -8.89454928052382E-17  -2.71080437795570E-17   7.08784359650651E-17  -2.96250022684903E-17  -3.03840931016824E-13
      5.67330460486339E-17
      1.00000000000000E+04
      8.00000000000000E-01   0.00000000000000E+00  -6.67717475994513E+00  -7.59602327542059E-13   4.85770782622411E-16
     -3.16521614514186E-16  -4.60128731550617E-16  -3.62395997112610E-17  -2.56420510718338E-17  -2.83042045341540E-16
     -4.60128731787493E-16  -1.67112512059253E-12   4.91020498655874E-16   2.10943879552680E-17  -3.08917668679195E-17
     -6.97379728718830E-17  -2.56420508349580E-17   5.45897071977364E-17  -3.08917671047953E-17  -1.51920465508412E-13
      5.65338179393729E-17
      1.00000000000000E+04
      8.00000000000000E-01   0.00000000000000E+00  -7.17717475994513E+00   6.07681862033647E-13   4.74421111238266E-16
     -2.78494487321486E-16  -4.50139358477763E-16  -3.11702610568749E-17  -2.42817527605552E-17  -2.52489181227864E-16
     -4.50139358661673E-16  -2.88648884465982E-12   4.82210336152538E-16   1.80300764839745E-17  -3.20709774914965E-17
     -5.71802017733385E-17  -2.42817525766460E-17   4.40254891867424E-17  -3.20709776754058E-17   1.51920465508412E-13
      5.63527302521591E-17
      1.00000000000000E+04
      8.00000000000000E-01   0.00000000000000E+00  -7.67717475994513E+00  -6.07681862033647E-13   4.63623789497333E-16
     -2.48448293487598E-16  -4.40627537037444E-16  -2.70644839960096E-17  -2.29962524599356E-17  -2.27207896749861E-16
     -4.40627537186826E-16  -6.07681862033647E-13   4.73816790283509E-16   1.54483187694117E-17  -3.31892530958017E-17
     -4.83390876786840E-17  -2.29962523105546E-17   3.67274414442001E-17  -3.31892532451828E-17   4.55761396525235E-13
      5.61855055556216E-17
      1.00000000000000E+04
      8.00000000000000E-01   0.00000000000000E+00  -8.17717475994513E+00   3.03840931016824E-13   4.53180634042011E-16
     -2.23614681067635E-16  -4.31415477696324E-16  -2.35668538966267E-17  -2.17651563457300E-17  -2.05360560864839E-16
     -4.31415477821594E-16  -7.59602327542059E-13   4.65679833279783E-16   1.31801800369482E-17  -3.42643554579932E-17
     -4.18104250339362E-17  -2.17651562204622E-17   3.14221511194010E-17  -3.42643555832611E-17   4.55761396525235E-13
      5.60295118031705E-17
      1.00000000000000E+04
      8.00000000000000E-01   0.00000000000000E+00  -8.67717475994513E+00   9.11522793050471E-13   4.42938550652289E-16
     -2.02206399072986E-16  -4.22364355656113E-16  -2.05225029671329E-17  -2.05741949962043E-17  -1.85950679917959E-16
     -4.22364355763504E-16   1.06344325855888E-12   4.57673227972556E-16   1.11129422077402E-17  -3.53088722091996E-17
     -3.68161005335439E-17  -2.05741948888143E-17   2.74069867032415E-17  -3.53088723165897E-17  -1.51920465508412E-13
      5.58830672055867E-17
      1.00000000000000E+04
      8.00000000000000E-01   0.00000000000000E+00  -9.17717475994513E+00  -1.51920465508412E-13   4.32771115042629E-16
     -1.83275501882224E-16  -4.13358151563559E-16  -1.78255465695429E-17  -1.94129634790956E-17  -1.68439373618250E-16
     -4.13358151656287E-16  -1.36728418957571E-12   4.49690263966933E-16   9.11619510969887E-18  -3.63321123096987E-17
     -3.26299594292019E-17  -1.94129633863685E-17   2.39128131219966E-17  -3.63321124024259E-17  -1.51920465508412E-13
      5.57450757888121E-17
      1.00000000000000E+04
      8.00000000000000E-01   0.00000000000000E+00  -9.67717475994513E+00  -6.07681862033647E-13   4.22569968755396E-16
     -1.65802476635788E-16  -4.04296120215367E-16  -1.54096036130908E-17  -1.82738485400548E-17  -1.52779517982626E-16
     -4.04296120293975E-16  -4.55761396525235E-13   4.41637112374957E-16   6.88298778809601E-18  -3.73409920796567E-17
     -2.84379814335267E-17  -1.82738484614484E-17   1.98999599572515E-17  -3.73409921582632E-17   0.00000000000000E+00
      5.56148406195230E-17
      1.00000000000000E+04
      8.00000000000000E-01   0.00000000000000E+00  -1.01771747599451E+01  -4.55761396525235E-13   4.12244227292748E-16
     -1.49680960956323E-16  -3.95092391778603E-16  -1.32741087170414E-17  -1.71518355141708E-17  -1.40191646931629E-16
     -3.95092391839223E-16  -4.55761396525235E-13   4.33432549777037E-16   3.41722686594479E-18  -3.83401579372942E-17
     -2.27778985859037E-17  -1.71518354535509E-17   1.29268863894158E-17  -3.83401579979141E-17  -3.03840931016824E-13
      5.54919934510151E-17
      1.00000000000000E+04
      8.00000000000000E-01   0.00000000000000E+00  -1.06771747599451E+01   9.11522793050471E-13   4.01728498196100E-16
     -1.34498547556465E-16  -3.85683401739290E-16  -1.13627975275499E-17  -1.60450964568347E-17  -1.35350135970631E-16
     -3.85683401764427E-16  -1.21536372406729E-12   4.25014811780484E-16  -4.67347473562952E-18  -3.93314100143039E-17
     -1.05177962524871E-17  -1.60450964316981E-17  -5.51540834132885E-18  -3.93314100394404E-17  -1.51920465508412E-13
      5.53765064708272E-17
      1.00000000000000E+04
      8.00000000000000E-01   0.00000000000000E+00  -1.11771747599451E+01   1.51920465508412E-13   3.91000704449050E-16
     -1.19922610221135E-16  -3.76044441801251E-16  -9.63240841729494E-18  -1.49562626478210E-17  -1.53693387296896E-16
     -3.76044441733649E-16  -6.07681862033647E-13   4.16356932827845E-16  -2.90326152407495E-17  -4.03124910933938E-17
      2.41302751360321E-17  -1.49562627154234E-17  -6.27887241197605E-17  -4.03124910257915E-17   0.00000000000000E+00
      5.52687537405642E-17
      1.00000000000000E+04
      8.00000000000000E-01   0.00000000000000E+00  -1.16771747599451E+01  -6.07681862033647E-13   3.80108841272451E-16
     -1.05995016207919E-16  -3.66214779895024E-16  -8.06929866080905E-18  -1.38940613774719E-17  -2.44033854554544E-16
     -3.66214779559297E-16  -6.07681862033647E-13   4.07490292567832E-16  -1.09134198236374E-16  -4.12755130083102E-17
      1.29965249205144E-16  -1.38940617131993E-17  -2.47167054001574E-16  -4.12755126725829E-17  -3.03840931016824E-13
      5.51695743854127E-17
      1.00000000000000E+04
      8.00000000000000E-01   0.00000000000000E+00  -1.21771747599451E+01  -3.03840931016824E-13   3.69199052755737E-16
     -9.28621628932484E-17  -3.56324582944854E-16  -6.67358025372465E-18  -1.28744698109169E-17  -5.54756053314423E-16
     -3.56324581820206E-16  -1.36728418957571E-12   3.98530369562765E-16  -3.75311896358314E-16  -4.22057877425716E-17
      4.55250896774907E-16  -1.28744709355640E-17  -8.37244231844876E-16  -4.22057866179245E-17  -1.51920465508412E-13
      5.50802575530688E-17
      1.00000000000000E+04
      8.00000000000000E-01   0.00000000000000E+00  -1.26771747599451E+01   1.51920465508412E-13   3.58526578687912E-16
     -8.07529408583670E-17  -3.46606664660607E-16  -5.44894410085606E-18  -1.19199140273363E-17  -1.52630434739872E-15
     -3.46606661237301E-16  -3.03840931016824E-13   3.89689094412777E-16  -1.24645316932670E-15  -4.30824331752223E-17
      1.44007422391299E-15  -1.19199174506437E-17  -2.69196726480150E-15  -4.30824297519147E-17   0.00000000000000E+00
      5.50023472021632E-17
      1.00000000000000E+04
      8.00000000000000E-01   0.00000000000000E+00  -1.31771747599451E+01   1.51920465508412E-13   3.48425767338618E-16
     -7.01809803054261E-17  -3.37370594882547E-16  -4.39487287505324E-18  -1.10551724561086E-17  -4.43611852004346E-15
     -3.37370584876186E-16   1.51920465508412E-13   3.81252631333534E-16  -4.02936583967642E-15  -4.38820464568950E-17
      4.36156589131665E-15  -1.10551824624689E-17  -8.39535656662606E-15  -4.38820364505348E-17   0.00000000000000E+00
      5.49372189121003E-17
      1.00000000000000E+04
      8.00000000000000E-01   0.00000000000000E+00  -1.36771747599451E+01  -1.06344325855888E-12   3.39232191985888E-16
     -6.11664463692260E-17  -3.28931685414019E-16  -3.49501080174050E-18  -1.03005065718882E-17  -1.29102202035506E-14
     -3.28931656905786E-16  -2.27880698262618E-12   3.73516701135563E-16  -1.26704452453438E-14  -4.45850442283302E-17
      1.28455188786900E-14  -1.03005350801214E-17  -2.55194561242386E-14  -4.45850157200971E-17  -1.51920465508412E-13
      5.48855507993310E-17
      1.00000000000000E+04
      8.00000000000000E-01   0.00000000000000E+00  -1.41771747599451E+01  -1.51920465508412E-13   3.31188223993782E-16
     -5.40334877199600E-17  -3.21522929430781E-16  -2.71170103466626E-18  -9.66529456303271E-18  -3.70081957197778E-14
     -3.21522849923927E-16   7.59602327542059E-13   3.66704530497351E-16  -3.86776947490005E-14  -4.51816805717403E-17
      3.69514430779223E-14  -9.66537406988616E-18  -7.56318439208337E-14  -4.51816010648868E-17  -3.03840931016824E-13
      5.48469751338992E-17
      1.00000000000000E+04
      8.00000000000000E-01   0.00000000000000E+00  -1.46771747599451E+01  -6.07681862033647E-13   3.24385591844409E-16
     -4.85720180015184E-17  -3.15239636261351E-16  -1.97790320081882E-18  -9.14595558309191E-18  -1.03928527452313E-13
     -3.15239419101120E-16   3.34225024118506E-12   3.60913590398819E-16  -1.14387117553024E-13  -4.56741712967570E-17
      1.03878033094028E-13  -9.14617274332184E-18  -2.18267097659898E-13  -4.56739541365270E-17  -1.51920465508412E-13
      5.48201268792793E-17
      1.00000000000000E+04
      8.00000000000000E-01   0.00000000000000E+00  -1.51771747599451E+01   9.11522793050471E-13   3.18772248364510E-16
     -4.44928856852017E-17  -3.10043358819180E-16  -1.17571048023198E-18  -8.72888954536053E-18  -2.85058291500590E-13
     -3.10042778793796E-16   5.62105722381124E-12   3.56116891041217E-16  -3.27181942906014E-13  -4.60741122465076E-17
      2.85012621080534E-13  -8.72946957074386E-18  -6.12195715697329E-13  -4.60735322211242E-17  -1.51920465508412E-13
      5.48030017913738E-17
      1.00000000000000E+04
      8.00000000000000E-01   0.00000000000000E+00  -1.56771747599451E+01   1.51920465508412E-13   3.14203837584388E-16
     -4.20624065438681E-17  -3.05808069694415E-16  -9.44336148443749E-20  -8.39576789000987E-18  -7.61546480970448E-13
     -3.05806558559921E-16   3.49417070669347E-12   3.52204094560708E-16  -9.03738814144772E-13  -4.63975360003891E-17
      7.61504370248585E-13  -8.39727902450353E-18  -1.66524326457245E-12  -4.63960248658954E-17   7.59602327542059E-13
      5.47933038905207E-17
      1.00000000000000E+04
      8.00000000000000E-01   0.00000000000000E+00  -1.61771747599451E+01   1.51920465508412E-13   3.10501443571086E-16
     -4.15692643912488E-17  -3.02373357072237E-16   1.69446804347499E-18  -8.12808649887816E-18  -1.97610557283311E-12
     -3.02369528209388E-16   6.07681862033647E-12   3.49029910841908E-16  -2.40733906796048E-12  -4.66603826315420E-17
      1.97606568993405E-12  -8.13191536172792E-18  -4.38340306512184E-12  -4.66565537686922E-17   2.27880698262618E-12
      5.47884691302559E-17
      1.00000000000000E+04
      8.00000000000000E-01   0.00000000000000E+00  -1.66771747599451E+01  -6.07681862033647E-13   3.07491807003238E-16
     -4.45577117662260E-17  -2.99582152811833E-16   5.08094230271552E-18  -7.90965419144529E-18  -4.96682076230472E-12
     -2.99572745964126E-16   1.48882056198244E-11   3.46448228534114E-16  -6.17549143352016E-12  -4.68754825693750E-17
      4.96678130876504E-12  -7.91906103915142E-18  -1.11422676602092E-11  -4.68660757216689E-17   6.22873908584488E-12
      5.47851367604159E-17
      1.00000000000000E+04
      8.00000000000000E-01   0.00000000000000E+00  -1.71771747599451E+01   1.51920465508412E-13   3.05026625502691E-16
     -5.40702612121841E-17  -2.97299368376366E-16   1.18699813430413E-17  -7.72725712635987E-18  -1.20594007085982E-11
     -2.97277025866318E-16   2.76495247225309E-11   3.44327573340745E-16  -1.52328816594957E-11  -4.70505474722883E-17
      1.20593585121457E-11  -7.74959963640793E-18  -2.72922283019458E-11  -4.70282049622402E-17   1.54958874818580E-11
      5.47778045980450E-17
      1.00000000000000E+04
      8.00000000000000E-01   0.00000000000000E+00  -1.76771747599451E+01   1.51920465508412E-13   3.02987504142066E-16
     -7.59479357828875E-17  -2.95417272392614E-16   2.53663142148978E-17  -7.57023174947760E-18  -2.82060383218421E-11
     -2.95366129258696E-16   6.59334820306507E-11   3.42552138335375E-16  -3.60631227881900E-11  -4.71860090761449E-17
      2.82059877255893E-11  -7.62137488339633E-18  -6.42690851541382E-11  -4.71348659422262E-17   3.58532298599852E-11
      5.47562408251208E-17
      1.00000000000000E+04
      8.00000000000000E-01   0.00000000000000E+00  -1.81771747599451E+01  -4.55761396525235E-13   3.01283868743540E-16
     -1.19028656836006E-16  -2.93854344257831E-16   5.04853394383470E-17  -7.42952448574790E-18  -6.33545549874121E-11
     -2.93741914380672E-16   1.48122453870701E-10   3.41013507115544E-16  -8.17455965303769E-11  -4.72715927344529E-17
      6.33544863853134E-11  -7.54195436290704E-18  -1.45100032436187E-10  -4.71591628572938E-17   8.17332104435255E-11
      5.47011172202512E-17
      1.00000000000000E+04
      8.00000000000000E-01   0.00000000000000E+00  -1.86771747599451E+01  -1.51920465508412E-13   2.99848595234019E-16
     -1.91315880488635E-16  -2.92552026736167E-16   9.14723559530503E-17  -7.29656849788643E-18  -1.36145536477603E-10
     -2.92315692118364E-16   3.12348477085295E-10   3.39596832651486E-16  -1.76832584819675E-10  -4.72811405319808E-17
      1.36145436615292E-10  -7.53290311568884E-18  -3.12977929959271E-10  -4.70448059141785E-17   1.76987342317300E-10
      5.45777090301189E-17
      1.00000000000000E+04
      8.00000000000000E-01   0.00000000000000E+00  -1.91771747599451E+01   0.00000000000000E+00   2.98633582772097E-16
     -2.88026556493943E-16  -2.91471343650503E-16   1.45161335231892E-16  -7.16223912161706E-18  -2.78595149553874E-10
     -2.90998953587164E-16   6.43687012359141E-10   3.38165897565519E-16  -3.63447932042586E-10  -4.71669439774034E-17
      2.78595006674609E-10  -7.63462918495629E-18  -6.42042793553195E-10  -4.66945539140642E-17   3.63393753496121E-10
      5.43291830991834E-17
      1.00000000000000E+04
      8.00000000000000E-01   0.00000000000000E+00  -1.96771747599451E+01  -7.59602327542059E-13   2.97605794207436E-16
     -3.81677245018224E-16  -2.90589468837162E-16   1.95234491839669E-16  -7.01632537032279E-18  -5.39734240563080E-10
     -2.89697858071145E-16   1.24711510135855E-09   3.36556306764370E-16  -7.05775013574969E-10  -4.68584486922838E-17
      5.39734054099258E-10  -7.90793613633990E-18  -1.24550887244897E-09  -4.59668379262669E-17   7.05822482752081E-10
      5.38747740617812E-17
      1.00000000000000E+04
      8.00000000000000E-01   0.00000000000000E+00  -2.01771747599451E+01  -4.55761396525235E-13   2.96743297815942E-16
     -4.37874636459926E-16  -2.89895070334554E-16   2.21919857400115E-16  -6.84822748142471E-18  -9.83628159103124E-10
     -2.88318388780170E-16   2.27136287981626E-09   3.34592794872107E-16  -1.28668814773828E-09  -4.62744060918810E-17
      9.83627943117987E-10  -8.42490903581107E-18  -2.27031586897059E-09  -4.46977245374939E-17   1.28676634285625E-09
      5.31226335734674E-17
      1.00000000000000E+04
      8.00000000000000E-01   0.00000000000000E+00  -2.06771747599451E+01  -1.51920465508412E-13   2.96030632316480E-16
     -4.46372490531306E-16  -2.89381201480976E-16   2.20277410276291E-16  -6.64943083555062E-18  -1.67641194479168E-09
     -2.86787641368653E-16   3.86561624486154E-09   3.32143176513018E-16  -2.18944358019514E-09  -4.53555351439631E-17
      1.67641171871777E-09  -9.24299094787204E-18  -3.86585507862146E-09  -4.27619750316444E-17   2.18902198751071E-09
      5.20049659789267E-17
      1.00000000000000E+04
      8.00000000000000E-01   0.00000000000000E+00  -2.11771747599451E+01   0.00000000000000E+00   2.95453705828033E-16
     -4.21062310002076E-16  -2.89036641139009E-16   1.99856390688681E-16  -6.41706468904792E-18  -2.66280848156857E-09
     -2.85084284794320E-16   6.12968694233340E-09   3.29191791061580E-16  -3.46568992952566E-09  -4.41075062663225E-17
      2.66280826028163E-09  -1.03694210337368E-17  -6.12849798994375E-09  -4.01551499216360E-17   3.46500197731586E-09
      5.05245709553668E-17
      1.00000000000000E+04
      8.00000000000000E-01   0.00000000000000E+00  -2.16771747599451E+01  -1.51920465508412E-13   2.94995942462166E-16
     -3.81736717091028E-16  -2.88839818484775E-16   1.72639486287248E-16  -6.15612397743597E-18  -3.94446078814264E-09
     -2.83254185608348E-16   9.05309246011177E-09   3.25875464150042E-16  -5.10728604649411E-09  -4.26212785412026E-17
      3.94446057892670E-09  -1.17417568538634E-17  -9.05174645279463E-09  -3.70356456647764E-17   5.10756605039280E-09
      4.87774025184246E-17
      1.00000000000000E+04
      8.00000000000000E-01   0.00000000000000E+00  -2.21771747599451E+01  -4.55761396525235E-13   2.94637560394725E-16
     -3.43830227590812E-16  -2.88759442537946E-16   1.47069072665695E-16  -5.87811785683432E-18  -5.47668483464742E-09
     -2.81391415061686E-16   1.25205251648758E-08   3.22436638762299E-16  -7.04437898668622E-09  -4.10452236999951E-17
      5.47668463786838E-09  -1.32461453330923E-17  -1.25210634774753E-08  -3.36771962237459E-17   7.04470390609056E-09
      4.69233415562571E-17
      1.00000000000000E+04
      8.00000000000000E-01   0.00000000000000E+00  -2.26771747599451E+01  -6.07681862033647E-13   2.94357770259847E-16
     -3.13658481110689E-16  -2.88760956680249E-16   1.26514611736120E-16  -5.59681357963809E-18  -7.18643601724388E-09
     -2.79596188132497E-16   1.63594034078078E-08   3.19123367253342E-16  -9.17220103630924E-09  -3.95271791203792E-17
      7.18643583001114E-09  -1.47615821273848E-17  -1.63586367397775E-08  -3.03624105726412E-17   9.17189426413935E-09
      4.51239926995153E-17
      1.00000000000000E+04
      8.00000000000000E-01   0.00000000000000E+00  -2.31771747599451E+01   4.55761396525235E-13   2.94137678714778E-16
     -2.90508142270273E-16  -2.88813633291182E-16   1.10501944783080E-16  -5.32404542363518E-18  -8.99724589593335E-09
     -2.77940819571569E-16   2.03819534935395E-08   3.16110627083828E-16  -1.13858596070470E-08  -3.81698075116234E-17
      8.99724571588861E-09  -1.61968591432474E-17  -2.03831052124313E-08  -2.72969937920180E-17   1.13862869693900E-08
      4.34938529349379E-17
      1.00000000000000E+04
      8.00000000000000E-01   0.00000000000000E+00  -2.36771747599451E+01   3.03840931016824E-13   2.93962013517084E-16
     -2.70654265948545E-16  -2.88894330111468E-16   9.73870717936405E-17  -5.06768340565946E-18  -1.08463052134105E-08
     -2.76459806841832E-16   2.44512950826479E-08   3.13479893050544E-16  -1.36028412913441E-08  -3.70200862078280E-17
      1.08463050400956E-08  -1.75022066753018E-17  -2.44491462340847E-08  -2.45855629381830E-17   1.36028065611577E-08
      4.20877696132600E-17
      1.00000000000000E+04
      8.00000000000000E-01   0.00000000000000E+00  -2.41771747599451E+01  -1.06344325855888E-12   2.93819367733619E-16
     -2.51838428763957E-16  -2.88987686182302E-16   8.59914149022301E-17  -4.83168155134861E-18  -1.26899440744068E-08
     -2.75157533203324E-16   2.84592608036908E-08   3.11239979117586E-16  -1.57689837282143E-08  -3.60824459146870E-17
      1.26899439085545E-08  -1.86618345303304E-17  -2.84589275507926E-08  -2.22522929357064E-17   1.57685847174456E-08
      4.09141274664761E-17
      1.00000000000000E+04
      8.00000000000000E-01   0.00000000000000E+00  -2.46771747599451E+01  -4.55761396525235E-13   2.93701588997790E-16
     -2.33325359877119E-16  -2.89084480089514E-16   7.58404157559729E-17  -4.61710890831566E-18  -1.45016067209566E-08
     -2.74020878714454E-16   3.23548053802575E-08   3.09358404586795E-16  -1.78543248723481E-08  -3.53375258725565E-17
      1.45016065634495E-08  -1.96807102833814E-17  -3.23559313599724E-08  -2.02739244974919E-17   1.78539969474796E-08
      3.99546347810280E-17
      1.00000000000000E+04
      8.00000000000000E-01   0.00000000000000E+00  -2.51771747599451E+01  -1.51920465508412E-13   2.93602946251287E-16
     -2.15508513945695E-16  -2.89179665579834E-16   6.68352161118173E-17  -4.42328067149291E-18  -1.62672413427743E-08
     -2.73029391752186E-16   3.61149888220562E-08   3.07786056525180E-16  -1.98458833758670E-08  -3.47566647729405E-17
      1.62672411941085E-08  -2.05735544991477E-17  -3.61131245031622E-08  -1.86063909452839E-17   1.98459780912259E-08
      3.91799454441972E-17
      1.00000000000000E+04
      8.00000000000000E-01   0.00000000000000E+00  -2.56771747599451E+01   0.00000000000000E+00   2.93519397495328E-16
     -1.98732132575516E-16  -2.89270777591248E-16   5.89624298815453E-17  -4.24861990411663E-18  -1.79808929361067E-08
     -2.72161400004589E-16   3.97218845141569E-08   3.06471713432407E-16  -2.17411592562148E-08  -3.43103134282452E-17
      1.79808927962430E-08  -2.13579974907670E-17  -3.97220519934621E-08  -1.72009358416090E-17   2.17410339779778E-08
      3.85589333317691E-17
      1.00000000000000E+04
      8.00000000000000E-01   0.00000000000000E+00  -2.61771747599451E+01  -3.03840931016824E-13   2.93448045865634E-16
     -1.83607348567554E-16  -2.89356840029856E-16   5.21649206079103E-17  -4.09120583582319E-18  -1.96414130362197E-08
     -2.71396958097170E-16   4.31853672868177E-08   3.05368868134996E-16  -2.35434622747302E-08  -3.39719100372953E-17
      1.96414129047736E-08  -2.20510877685189E-17  -4.31848751273675E-08  -1.60120281045963E-17   2.35437222217006E-08
      3.80631158726967E-17
      1.00000000000000E+04