DF-ISE text

Info {
  version   = 1.0
  type      = xyplot
  datasets  = [
    "frequency"
    "v(Ntop)" "v(Ptop)" "v(Pbot)" "a(Ntop,Ntop)" "c(Ntop,Ntop)"
    "a(Ntop,Ptop)" "c(Ntop,Ptop)" "a(Ntop,Pbot)" "c(Ntop,Pbot)" "a(Ptop,Ntop)"
    "c(Ptop,Ntop)" "a(Ptop,Ptop)" "c(Ptop,Ptop)" "a(Ptop,Pbot)" "c(Ptop,Pbot)"
    "a(Pbot,Ntop)" "c(Pbot,Ntop)" "a(Pbot,Ptop)" "c(Pbot,Ptop)" "a(Pbot,Pbot)"
    "c(Pbot,Pbot)" ]
  functions = [
    Frequency
    Voltage Voltage Voltage Admittance Capacitance
    Admittance Capacitance Admittance Capacitance Admittance
    Capacitance Admittance Capacitance Admittance Capacitance
    Admittance Capacitance Admittance Capacitance Admittance
    Capacitance ]
}

Data {
      1.00000000000000E+04
      8.00000000000000E-01   0.00000000000000E+00  -5.00000000000000E-02   0.00000000000000E+00   1.17737822910932E-15
     -3.26694546788004E-15  -1.07219502267629E-15  -1.56280836227915E-15  -1.05183206433239E-16  -3.26825189726708E-15
     -1.07219502311835E-15  -1.36728418957571E-12   1.07220920868478E-15   6.15755047376108E-16  -1.41855667230096E-20
     -1.56137689170244E-15  -1.05183205991193E-16   6.14322254065126E-16  -1.41860087685827E-20  -1.51920465508412E-13
      1.05197391999504E-16
      1.00000000000000E+04
      8.00000000000000E-01   0.00000000000000E+00  -1.45555555555556E-01  -1.51920465508412E-13   1.17323162628088E-15
     -3.24247689259709E-15  -1.07217948531545E-15  -1.44772019930690E-15  -1.01052140965600E-16  -3.24481400585406E-15
     -1.07217948578596E-15  -9.11522793050471E-13   1.07219929663659E-15   5.91656253712522E-16  -1.98108504793565E-20
     -1.44640617406975E-15  -1.01052140495112E-16   5.90351351780087E-16  -1.98113209784325E-20   4.55761396525235E-13
      1.01071951816607E-16
      1.00000000000000E+04
      8.00000000000000E-01   0.00000000000000E+00  -3.28172839506173E-01  -3.03840931016824E-13   1.16649256392253E-15
     -3.20425819826132E-15  -1.07213216095805E-15  -1.27086094220552E-15  -9.43604029648190E-17  -3.20625631298291E-15
     -1.07213216147552E-15  -1.51920465508412E-12   1.07216853920972E-15   5.52682697378312E-16  -3.63777338739581E-20
     -1.26988667979102E-15  -9.43604024473620E-17   5.51711916657499E-16  -3.63782513350833E-20  -1.51920465508412E-13
      9.43967806988619E-17
      1.00000000000000E+04
      8.00000000000000E-01   0.00000000000000E+00  -6.77174759945130E-01  -1.51920465508412E-13   1.15649796047579E-15
     -3.15205591795658E-15  -1.07192102553240E-15  -1.03605878644655E-15  -8.45769349437109E-17  -3.15162576895144E-15
     -1.07192102612242E-15   3.03840931016824E-13   1.07202692029465E-15   4.95989444608455E-16  -1.05894171673662E-19
     -1.03628227740223E-15  -8.45769343536865E-17   4.96207378667488E-16  -1.05894761695084E-19   4.55761396525235E-13
      8.46828291149895E-17
      1.00000000000000E+04
      8.00000000000000E-01   0.00000000000000E+00  -1.17717475994513E+00   1.51920465508412E-13   1.14547314176707E-15
     -3.10818139670403E-15  -1.07090203322973E-15  -8.23607670036904E-16  -7.45711085376410E-17  -3.10306919767136E-15
     -1.07090203391981E-15  -1.06344325855888E-12   1.07131207723151E-15   4.38659996384447E-16  -4.10043311587428E-19
     -8.28539885681103E-16  -7.45711078475693E-17   4.43594028311276E-16  -4.10044001660383E-19   0.00000000000000E+00
      7.49811518486993E-17
      1.00000000000000E+04
      8.00000000000000E-01   0.00000000000000E+00  -1.67717475994513E+00  -1.51920465508412E-13   1.13479281414672E-15
     -3.08724553842612E-15  -1.06751651240144E-15  -6.81863337694199E-16  -6.72763017454659E-17  -3.06892882727276E-15
     -1.06751651325163E-15  -2.12688651711777E-12   1.06879953353937E-15   3.96589436484735E-16  -1.28302028794771E-18
     -6.99812080870652E-16  -6.72763008952962E-17   4.14534761096843E-16  -1.28302113811850E-18  -1.51920465508412E-13
      6.85593220331620E-17
      1.00000000000000E+04
      8.00000000000000E-01   0.00000000000000E+00  -2.17717475994513E+00  -1.51920465508412E-13   1.11954817885879E-15
     -3.03441003514807E-15  -1.05833474132573E-15  -5.69295046219231E-16  -6.12134375332378E-17  -2.98974604351804E-15
     -1.05833474245713E-15  -2.73456837915141E-12   1.06158097935857E-15   3.56604839718836E-16  -3.24623690262214E-18
     -6.14410705701476E-16  -6.12134364018750E-17   4.01731668268684E-16  -3.24623803398922E-18  -1.51920465508412E-13
      6.44596744357477E-17
      1.00000000000000E+04
      8.00000000000000E-01   0.00000000000000E+00  -2.67717475994513E+00   3.03840931016824E-13   1.09364181004278E-15
     -2.83890812801740E-15  -1.03851132600393E-15  -4.66861002720485E-16  -5.51304840390855E-17  -2.74848454987263E-15
     -1.03851132755567E-15   1.51920465508412E-13   1.04520919453824E-15   3.03648736512969E-16  -6.69786698287674E-18
     -5.57108922679267E-16  -5.51304824873664E-17   3.93909994577518E-16  -6.69786853459857E-18   1.51920465508412E-13
      6.18283510217534E-17
      1.00000000000000E+04
      8.00000000000000E-01   0.00000000000000E+00  -3.17717475994513E+00  -1.51920465508412E-13   1.05558763711654E-15
     -2.43345883843363E-15  -1.00677800635902E-15  -3.60869207836147E-16  -4.88096307577800E-17  -2.28975585878684E-15
     -1.00677800830177E-15  -7.59602327542059E-13   1.01809242214913E-15   2.35912281140674E-16  -1.13144138468982E-17
     -5.03612389674743E-16  -4.88096288150606E-17   3.78664407884194E-16  -1.13144157896200E-17  -1.51920465508412E-13
      6.01240446038174E-17
      1.00000000000000E+04
      8.00000000000000E-01   0.00000000000000E+00  -3.67717475994513E+00   6.07681862033647E-13   1.01425622905650E-15
     -1.96434677834080E-15  -9.71145049930858E-16  -2.65382782921668E-16  -4.31111791258006E-17  -1.78989847173194E-15
     -9.71145051981353E-16  -1.06344325855888E-12   9.87050860970029E-16   1.73701488164020E-16  -1.59058089886150E-17
     -4.39797704616199E-16  -4.31111770753231E-17   3.48123801114702E-16  -1.59058110390937E-17   0.00000000000000E+00
      5.90169881136698E-17
      1.00000000000000E+04
      8.00000000000000E-01   0.00000000000000E+00  -4.17717475994513E+00   6.07681862033647E-13   9.79767642801728E-16
     -1.61746895988811E-15  -9.40991952872266E-16  -2.01380191691783E-16  -3.87756899297769E-17  -1.44061915455587E-15
     -9.40991954734758E-16  -4.55761396525235E-13   9.60521983516497E-16   1.33429765338991E-16  -1.95300287811840E-17
     -3.77679288451722E-16  -3.87756880672839E-17   3.09723868800029E-16  -1.95300306436771E-17  -3.03840931016824E-13
      5.83057187102323E-17
      1.00000000000000E+04
      8.00000000000000E-01   0.00000000000000E+00  -4.67717475994513E+00   3.03840931016824E-13   9.53506268086383E-16
     -1.37379634566518E-15  -9.17883614402295E-16  -1.59928770534919E-16  -3.56226536841755E-17  -1.22441092923470E-15
     -9.17883615877830E-16  -1.06344325855888E-12   9.40089683259001E-16   1.09495068100817E-16  -2.22060673806006E-17
     -3.09747360877951E-16  -3.56226522086430E-17   2.59312259441174E-16  -2.22060688561333E-17  -3.03840931016824E-13
      5.78287210641502E-17
      1.00000000000000E+04
      8.00000000000000E-01   0.00000000000000E+00  -5.17717475994513E+00   4.55761396525235E-13   9.32751264577645E-16
     -1.17094352919401E-15  -8.99558689644567E-16  -1.29956739906937E-16  -3.31925749332729E-17  -1.06119570899472E-15
     -8.99558690692653E-16  -9.11522793050471E-13   9.23843655551913E-16   9.24096613677539E-17  -2.42849648601675E-17
     -2.39326899260127E-16  -3.31925738851915E-17   2.01780555713026E-16  -2.42849659082492E-17   1.51920465508412E-13
      5.74775397931844E-17
      1.00000000000000E+04
      8.00000000000000E-01   0.00000000000000E+00  -5.67717475994513E+00   6.07681862033647E-13   9.15207381462580E-16
     -1.00389426162046E-15  -8.84035977784621E-16  -1.07894729000127E-16  -3.11714036780973E-17  -9.29341712300327E-16
     -8.84035978513585E-16  -1.67112512059253E-12   9.10059457689492E-16   7.91467705936132E-17  -2.60234791752108E-17
     -1.82175252201953E-16  -3.11714029491429E-17   1.53438026146148E-16  -2.60234799041660E-17   0.00000000000000E+00
      5.71948828528096E-17
      1.00000000000000E+04
      8.00000000000000E-01   0.00000000000000E+00  -6.17717475994513E+00   7.59602327542059E-13   8.99561814733725E-16
     -8.78768387049703E-16  -8.70171402398013E-16  -9.21714815963329E-17  -2.93904123358316E-17  -8.26906262677344E-16
     -8.70171402939430E-16  -1.67112512059253E-12   8.97733533818944E-16   6.89893379788967E-17  -2.75621308795356E-17
     -1.43929764107424E-16  -2.93904117944132E-17   1.20742448786645E-16  -2.75621314209539E-17   1.51920465508412E-13
      5.69525432155753E-17
      1.00000000000000E+04
      8.00000000000000E-01   0.00000000000000E+00  -6.67717475994513E+00   3.03840931016824E-13   8.85095773711711E-16
     -7.84390169565339E-16  -8.57335638291642E-16  -8.04933964982937E-17  -2.77601354203089E-17  -7.44858565596243E-16
     -8.57335638726205E-16  -1.82304558610094E-12   8.86311689472492E-16   6.09143584935051E-17  -2.89760507464542E-17
     -1.18907465393355E-16  -2.77601349857553E-17   9.93242878746545E-17  -2.89760511810089E-17   1.51920465508412E-13
      5.67361861666342E-17
      1.00000000000000E+04
      8.00000000000000E-01   0.00000000000000E+00  -7.17717475994513E+00   3.03840931016824E-13   8.71387955929873E-16
     -7.06426011573937E-16  -8.45158036952044E-16  -7.11686857524281E-17  -2.62299189780581E-17  -6.76577367706562E-16
     -8.45158037321104E-16  -1.82304558610094E-12   8.75466126069681E-16   5.41406630172660E-17  -3.03080887489265E-17
     -1.01493886841783E-16  -2.62299186089937E-17   8.44555906414636E-17  -3.03080891179905E-17   4.55761396525235E-13
      5.65380077266432E-17
      1.00000000000000E+04
      8.00000000000000E-01   0.00000000000000E+00  -7.67717475994513E+00   1.51920465508412E-13   8.58161542454454E-16
     -6.42092311683172E-16  -8.33393272003988E-16  -6.32688724983494E-17  -2.47682704506239E-17  -6.16657317366293E-16
     -8.33393272329273E-16  -3.64609117220188E-12   8.64978420541189E-16   4.82250075100618E-17  -3.15851482123957E-17
     -8.84713970486655E-17  -2.47682701253471E-17   7.34437262719207E-17  -3.15851485376730E-17  -1.51920465508412E-13
      5.63534186631994E-17
      1.00000000000000E+04
      8.00000000000000E-01   0.00000000000000E+00  -8.17717475994513E+00   7.59602327542059E-13   8.45207739201240E-16
     -5.85126876769270E-16  -8.21854333656086E-16  -5.63283968243783E-17  -2.33534055453465E-17  -5.62924004698148E-16
     -8.21854333949983E-16  -6.07681862033647E-13   8.54680434671644E-16   4.29161512244634E-17  -3.28261007224107E-17
     -7.82402939583612E-17  -2.33534052514550E-17   6.48217654723882E-17  -3.28261010163022E-17  -6.07681862033647E-13
      5.61795062673998E-17
      1.00000000000000E+04
      8.00000000000000E-01   0.00000000000000E+00  -8.67717475994513E+00   3.03840931016824E-13   8.32343306119781E-16
     -5.33591976489272E-16  -8.10375008759390E-16  -5.01184749242305E-17  -2.19682973606359E-17  -5.13847663857971E-16
     -8.10375009029555E-16  -2.73456837915141E-12   8.44420975855302E-16   3.80476861875321E-17  -3.40459668261048E-17
     -6.99115923500866E-17  -2.19682970904711E-17   5.78411730400107E-17  -3.40459670962697E-17   0.00000000000000E+00
      5.60142641863761E-17
      1.00000000000000E+04
      8.00000000000000E-01   0.00000000000000E+00  -9.17717475994513E+00   1.51920465508412E-13   8.19381536561578E-16
     -4.86635316333529E-16  -7.98783893570468E-16  -4.44934406765885E-17  -2.05976429912436E-17  -4.67833521128498E-16
     -7.98783893821638E-16  -2.43072744813459E-12   8.34042410142321E-16   3.34691266289761E-17  -3.52585163194312E-17
     -6.28961632771100E-17  -2.05976427400792E-17   5.18667578628773E-17  -3.52585165705957E-17  -1.51920465508412E-13
      5.58561593102688E-17
      1.00000000000000E+04
      8.00000000000000E-01   0.00000000000000E+00  -9.67717475994513E+00  -4.55761396525235E-13   8.06107375838674E-16
     -4.41564576034232E-16  -7.86881706912672E-16  -3.92929655729793E-17  -1.92256689261333E-17  -4.24348934743800E-16
     -7.86881707146739E-16  -1.21536372406729E-12   8.23359900907447E-16   2.89445021840085E-17  -3.64781937601069E-17
     -5.63660444753308E-17  -1.92256686920718E-17   4.60260309971431E-17  -3.64781939941688E-17   4.55761396525235E-13
      5.57038626857622E-17
      1.00000000000000E+04
      8.00000000000000E-01   0.00000000000000E+00  -1.01771747599451E+01  -1.51920465508412E-13   7.92253706126529E-16
     -3.97558081772959E-16  -7.74419226481551E-16  -3.44135646857690E-17  -1.78344796450916E-17  -3.83141059165949E-16
     -7.74419226697317E-16  -3.03840931016824E-13   8.12140836859239E-16   2.38624624615768E-17  -3.77216101614821E-17
     -4.93716125962322E-17  -1.78344794293298E-17   3.88307899119512E-17  -3.77216103772440E-17  -1.51920465508412E-13
      5.55560898069763E-17
      1.00000000000000E+04
      8.00000000000000E-01   0.00000000000000E+00  -1.06771747599451E+01  -4.55761396525235E-13   7.77483229029078E-16
     -3.54637628933840E-16  -7.61079882223718E-16  -2.97550082968499E-17  -1.64033468055157E-17  -3.45447071508082E-16
     -7.61079882412161E-16  -1.97496605160935E-12   8.00088103969172E-16   1.62945512596229E-17  -3.90082215568923E-17
     -3.92902229417394E-17  -1.64033466170715E-17   2.58103343972005E-17  -3.90082217453365E-17  -3.03840931016824E-13
      5.54115683620032E-17
      1.00000000000000E+04
      8.00000000000000E-01   0.00000000000000E+00  -1.11771747599451E+01   9.11522793050471E-13   7.61397519774602E-16
     -3.09911033376415E-16  -7.46486894922986E-16  -2.51562328975140E-17  -1.49106248516611E-17  -3.16813968678055E-16
     -7.46486895051893E-16  -1.82304558610094E-12   7.86845517944691E-16  -2.60490412607445E-19  -4.03586228930082E-17
     -1.76967314688447E-17  -1.49106247227557E-17  -7.73324003135777E-18  -4.03586230219136E-17   1.51920465508412E-13
      5.52692477442207E-17
      1.00000000000000E+04
      8.00000000000000E-01   0.00000000000000E+00  -1.16771747599451E+01   3.03840931016824E-13   7.43634533992180E-16
     -2.61807676681869E-16  -7.30291957857204E-16  -2.05120971827518E-17  -1.33425761350319E-17  -3.21964048790716E-16
     -7.30291957830216E-16   1.21536372406729E-12   7.72078406829019E-16  -4.81571788313415E-17  -4.17864489996002E-17
      3.99002599980475E-17  -1.33425761620195E-17  -1.08570814747488E-16  -4.17864489726127E-17   0.00000000000000E+00
      5.51290251344274E-17
      1.00000000000000E+04
      8.00000000000000E-01   0.00000000000000E+00  -1.21771747599451E+01  -6.07681862033647E-13   7.24169749212788E-16
     -2.10619657562140E-16  -7.12453827278231E-16  -1.58563145900481E-17  -1.17159219346517E-17  -4.29899277722171E-16
     -7.12453826826189E-16  -1.51920465508412E-12   7.55731243795550E-16  -2.03474483580140E-16  -4.32774169700888E-17
      2.03798606157410E-16  -1.17159223866962E-17  -4.23125495473644E-16  -4.32774165180442E-17   3.03840931016824E-13
      5.49933389040999E-17
      1.00000000000000E+04
      8.00000000000000E-01   0.00000000000000E+00  -1.26771747599451E+01   3.03840931016824E-13   7.03858563141143E-16
     -1.58888282901586E-16  -6.93746263978008E-16  -1.14692579237596E-17  -1.01122991632216E-17  -8.41441472555350E-16
     -6.93746262381895E-16  -6.07681862033647E-13   7.38503127019774E-16  -7.20019628608944E-16  -4.47568646378412E-17
      6.70087916875923E-16  -1.01123007593327E-17  -1.40157954076325E-15  -4.47568630417302E-17   4.55761396525235E-13
      5.48691638005331E-17
      1.00000000000000E+04
      8.00000000000000E-01   0.00000000000000E+00  -1.31771747599451E+01   0.00000000000000E+00   6.84725837416023E-16
     -1.16615339144567E-16  -6.76041133366280E-16  -7.84005526327172E-18  -8.68470404985973E-18  -2.10836977376998E-15
     -6.76041128728193E-16  -1.36728418957571E-12   7.22123767112235E-16  -2.42160408497541E-15  -4.60826383840646E-17
      1.98456881794601E-15  -8.68470868794294E-18  -4.41401046858149E-15  -4.60826337459814E-17  -1.51920465508412E-13
      5.47673424332421E-17
      1.00000000000000E+04
      8.00000000000000E-01   0.00000000000000E+00  -1.36771747599451E+01   6.07681862033647E-13   6.69050404638804E-16
     -8.43590241385473E-17  -6.61472309682468E-16  -5.29118877347671E-18  -7.57809495642825E-18  -5.79502780100478E-15
     -6.61472296862455E-16   7.59602327542059E-13   7.08590286581756E-16  -7.89043731424632E-15  -4.71179897190136E-17
      5.70497038041015E-15  -7.57810777643616E-18  -1.36006960360946E-14  -4.71179768990057E-17  -3.03840931016824E-13
      5.46960846754057E-17
      1.00000000000000E+04
      8.00000000000000E-01   0.00000000000000E+00  -1.41771747599451E+01   3.03840931016824E-13   6.57783757370358E-16
     -6.55713440780811E-17  -6.50958800175500E-16  -3.67989413760543E-18  -6.82495719493474E-18  -1.64069863465697E-14
     -6.50958764865250E-16  -1.51920465508412E-13   6.98788299034097E-16  -2.49131158979135E-14  -4.78295341687170E-17
      1.63378613237524E-14  -6.82499250518785E-18  -4.12546753891612E-14  -4.78294988584641E-17  -1.51920465508412E-13
      5.46544913639516E-17
      1.00000000000000E+04
      8.00000000000000E-01   0.00000000000000E+00  -1.46771747599451E+01   6.07681862033647E-13   6.50306471044058E-16
     -5.47266193346306E-17  -6.43955411976575E-16  -2.60068244476151E-18  -6.35105906749230E-18  -4.67542262672793E-14
     -6.43955314369299E-16   2.88648884465982E-12   6.92239018320952E-16  -7.60525409981248E-14  -4.82837039517368E-17
      4.66968132681081E-14  -6.35115667476923E-18  -1.22751951199587E-13  -4.82836063444598E-17   4.55761396525235E-13
      5.46347630183775E-17
      1.00000000000000E+04
      8.00000000000000E-01   0.00000000000000E+00  -1.51771747599451E+01   9.11522793050471E-13   6.45429207334935E-16
     -4.77957487002440E-17  -6.39372458725973E-16  -1.68051124662691E-18  -6.05674860901907E-18  -1.32052040590900E-13
     -6.39372190569426E-16   5.46913675830282E-12   6.87943990696366E-16  -2.24075653077952E-13  -4.85718001269669E-17
      1.32002417828015E-13  -6.05701676556553E-18  -3.56079738064542E-13  -4.85715319704205E-17  -1.51920465508412E-13
      5.46285487357776E-17
      1.00000000000000E+04
      8.00000000000000E-01   0.00000000000000E+00  -1.56771747599451E+01   1.51920465508412E-13   6.42150767945187E-16
     -4.29015691454096E-17  -6.36284221751904E-16  -6.15327453828256E-19  -5.86654619335449E-18  -3.65427903673039E-13
     -6.36283498088433E-16   5.46913675830282E-12   6.85046880917513E-16  -6.36384177135810E-13  -4.87633828281140E-17
      3.65384012190649E-13  -5.86726985682585E-18  -1.00176880681565E-12  -4.87626591646427E-17   4.55761396525235E-13
      5.46299290217005E-17
      1.00000000000000E+04
      8.00000000000000E-01   0.00000000000000E+00  -1.61771747599451E+01  -1.51920465508412E-13   6.39823129962368E-16
     -4.01058141051395E-17  -6.34088502314463E-16   9.73026365991388E-19  -5.73462764802449E-18  -9.83144256693604E-13
     -6.34086600357769E-16   4.40569349974394E-12   6.82987037558973E-16  -1.74027340667739E-12  -4.89004372010659E-17
      9.83105126581668E-13  -5.73652960471898E-18  -2.72337755265745E-12  -4.88985352443713E-17   1.36728418957571E-12
      5.46350648477904E-17
      1.00000000000000E+04
      8.00000000000000E-01   0.00000000000000E+00  -1.66771747599451E+01   1.51920465508412E-13   6.38067533670005E-16
     -3.94785044080427E-17  -6.32432105047081E-16   3.79909740832118E-18  -5.63542862308474E-18  -2.55867600415810E-12
     -6.32427263894305E-16   1.04825121200804E-11   6.81432578110352E-16  -4.57729222023979E-12  -4.90053142162055E-17
      2.55864014094768E-12  -5.64026977586129E-18  -7.13592855845369E-12  -4.90004730634289E-17   5.01337536177759E-12
      5.46407428387457E-17
      1.00000000000000E+04
      8.00000000000000E-01   0.00000000000000E+00  -1.71771747599451E+01   3.03840931016824E-13   6.36668763019667E-16
     -4.40636777478928E-17  -6.31113956381640E-16   9.33739657672354E-18  -5.55480663812633E-18  -6.41935691372078E-12
     -6.31102068419603E-16   1.76227739989758E-11   6.80189803956640E-16  -1.15647056596120E-11  -4.90877355369145E-17
      6.41932199437658E-12  -5.56669460016167E-18  -1.79840182957220E-11  -4.90758475748791E-17   1.12421144476225E-11
      5.46425421755496E-17
      1.00000000000000E+04
      8.00000000000000E-01   0.00000000000000E+00  -1.76771747599451E+01   0.00000000000000E+00   6.35503612721253E-16
     -5.78993799732905E-17  -6.30019119223624E-16   2.04236429101746E-17  -5.48449349780177E-18  -1.54816662005849E-11
     -6.29991045018017E-16   4.39050145319310E-11   6.79138795795660E-16  -2.80212176121033E-11  -4.91477507773259E-17
      1.54816288544881E-11  -5.51256770341526E-18  -4.35028260424334E-11  -4.91196765717124E-17   2.82572065845646E-11
      5.46322442745491E-17
      1.00000000000000E+04
      8.00000000000000E-01   0.00000000000000E+00  -1.81771747599451E+01   3.03840931016824E-13   6.34499999402149E-16
     -8.72395256590848E-17  -6.29081079556648E-16   4.16421833992497E-17  -5.41891984566528E-18  -3.57897479053998E-11
     -6.29017524191930E-16   1.01634791425127E-10   6.78192356668034E-16  -6.49700323928474E-11  -4.91748324768277E-17
      3.57897020517768E-11  -5.48247521038395E-18  -1.00759692830151E-10  -4.91112771121090E-17   6.50219592376002E-11
      5.45937523224946E-17
      1.00000000000000E+04
      8.00000000000000E-01   0.00000000000000E+00  -1.86771747599451E+01   3.03840931016824E-13   6.33614924541675E-16
     -1.42876095849439E-16  -6.28261606469565E-16   7.79117902487057E-17  -5.35331807224277E-18  -7.90403071909827E-11
     -6.28124219170804E-16   2.22107720573298E-10   6.77267920137332E-16  -1.43712095188365E-10  -4.91437009670942E-17
      7.90402427821823E-11  -5.49070537101045E-18  -2.22752260079544E-10  -4.90063136683266E-17   1.43716760370958E-10
      5.44970190391002E-17
      1.00000000000000E+04
      8.00000000000000E-01   0.00000000000000E+00  -1.91771747599451E+01  -9.11522793050471E-13   6.32822796292147E-16
     -2.21097790112059E-16  -6.27540303968313E-16   1.28714009170026E-16  -5.28249232391003E-18  -1.66038483865220E-10
     -6.27258161822178E-16   4.70953443076077E-10   6.76266507251097E-16  -3.02003754985297E-10  -4.90083454286603E-17
      1.66038391120827E-10  -5.56463447004566E-18  -4.68042017371089E-10  -4.87262032825249E-17   3.02169805896231E-10
      5.42908377526170E-17
      1.00000000000000E+04
      8.00000000000000E-01   0.00000000000000E+00  -1.96771747599451E+01   1.51920465508412E-13   6.32109131231826E-16
     -3.04270607407844E-16  -6.26908979445392E-16   1.80683441210000E-16  -5.20015178647732E-18  -3.29953559612984E-10
     -6.26362163754976E-16   9.31120533101056E-10   6.75060810102859E-16  -5.99645884471191E-10  -4.86986463477989E-17
      3.29953436010551E-10  -5.74696747689116E-18  -9.29599139817444E-10  -4.81518306573846E-17   5.99478156896193E-10
      5.38987981341562E-17
      1.00000000000000E+04
      8.00000000000000E-01   0.00000000000000E+00  -2.01771747599451E+01   6.07681862033647E-13   6.31466728429766E-16
     -3.58734114932072E-16  -6.26367577851889E-16   2.13028152447246E-16  -5.09915057802393E-18  -6.16318430010236E-10
     -6.25375193956087E-16   1.73508363657157E-09   6.73503799639913E-16  -1.11775241619753E-09  -4.81286056839542E-17
      6.16318283429100E-10  -6.09153447382559E-18  -1.73407048660053E-09  -4.71362217881529E-17   1.11767886474539E-09
      5.32277562610202E-17
      1.00000000000000E+04
      8.00000000000000E-01   0.00000000000000E+00  -2.06771747599451E+01   3.03840931016824E-13   6.30892547792342E-16
     -3.72260869311806E-16  -6.25919445012213E-16   2.17012178315796E-16  -4.97310278028306E-18  -1.07540994606713E-09
     -6.24245702880159E-16   3.01881157011765E-09   6.71471332527119E-16  -1.94377278227644E-09  -4.72256296459110E-17
      1.07540979041449E-09  -6.64684491233613E-18  -3.01918235568316E-09  -4.55518875138589E-17   1.94321467431810E-09
      5.21987324253948E-17
      1.00000000000000E+04
      8.00000000000000E-01   0.00000000000000E+00  -2.11771747599451E+01  -1.51920465508412E-13   6.30384550932465E-16
     -3.54010806063171E-16  -6.25565423843959E-16   2.00420726605515E-16  -4.81912708862334E-18  -1.74569594589939E-09
     -6.22955032019239E-16   4.88819289819866E-09   6.68930848666272E-16  -3.14046417809964E-09  -4.59758166478922E-17
      1.74569579160828E-09  -7.42951891334510E-18  -4.88615976929756E-09  -4.33654248231717E-17   3.14034794252438E-09
      5.07949437356765E-17
      1.00000000000000E+04
      8.00000000000000E-01   0.00000000000000E+00  -2.16771747599451E+01  -6.07681862033647E-13   6.29939002659864E-16
     -3.19944862734315E-16  -6.25298938104071E-16   1.74798747692757E-16  -4.64006455593710E-18  -2.63583899380403E-09
     -6.21534197953193E-16   7.34626603012476E-09   6.65988313665478E-16  -4.71357105384027E-09  -4.44541157121323E-17
      2.63583884782855E-09  -8.40480470681364E-18  -7.34940972686105E-09  -4.06893755612595E-17   4.71378820379500E-09
      4.90941802675387E-17
      1.00000000000000E+04
      8.00000000000000E-01   0.00000000000000E+00  -2.21771747599451E+01  -3.03840931016824E-13   6.29549378425448E-16
     -2.84299814988717E-16  -6.25105233691212E-16   1.48781323080565E-16  -4.44414473433072E-18  -3.71858226906958E-09
     -6.20055369656556E-16   1.03231475517621E-08   6.62861348221770E-16  -6.60300729692344E-09  -4.28059785650965E-17
      3.71858213337786E-09  -9.49400876898980E-18  -1.03215892815308E-08  -3.77561145304372E-17   6.60291919239210E-09
      4.72501232992456E-17
      1.00000000000000E+04
      8.00000000000000E-01   0.00000000000000E+00  -2.26771747599451E+01  -1.51920465508412E-13   6.29207187022447E-16
     -2.54239212044329E-16  -6.24965146936325E-16   1.27076518440254E-16  -4.24204008632311E-18  -4.94177782622976E-09
     -6.18601307780688E-16   1.36486865417412E-08   6.59790559842262E-16  -8.70596993557238E-09  -4.11892520614893E-17
      4.94177769889378E-09  -1.06058792419595E-17  -1.36477475073901E-08  -3.48254129058567E-17   8.70640995782157E-09
      4.54312921477605E-17
      1.00000000000000E+04
      8.00000000000000E-01   0.00000000000000E+00  -2.31771747599451E+01   3.03840931016824E-13   6.28903664785976E-16
     -2.31906146126415E-16  -6.24860210576490E-16   1.10451958524731E-16  -4.04345420965757E-18  -6.24741366303863E-09
     -6.17236292241185E-16   1.71609357838302E-08   6.56957765698027E-16  -1.09134258986509E-08  -3.97214734573764E-17
      6.24741354171229E-09  -1.16673725449644E-17  -1.71608393299256E-08  -3.20975551220732E-17   1.09133585602623E-08
      4.37649276670124E-17
      1.00000000000000E+04
      8.00000000000000E-01   0.00000000000000E+00  -2.36771747599451E+01   0.00000000000000E+00   6.28631094889113E-16
     -2.14331262544224E-16  -6.24775901999071E-16   9.75270906772334E-17  -3.85519289018253E-18  -7.58618324757377E-09
     -6.15994940040350E-16   2.07251418251230E-08   6.54456932388728E-16  -1.31365437680764E-08  -3.84619923483094E-17
      7.58618313024600E-09  -1.26361548489015E-17  -2.07227268007850E-08  -2.96810303895986E-17   1.31367145729779E-08
      4.23171852374702E-17
      1.00000000000000E+04
      8.00000000000000E-01   0.00000000000000E+00  -2.41771747599451E+01   1.51920465508412E-13   6.28383317026265E-16
     -1.99677053291817E-16  -6.24702361283919E-16   8.67574373050836E-17  -3.68095574249554E-18  -8.92305137163831E-09
     -6.14886470785392E-16   2.42387583514016E-08   6.52309006059723E-16  -1.53155018191224E-08  -3.74225352750007E-17
      8.92305125855895E-09  -1.34968462410295E-17  -2.42385529909437E-08  -2.76066447764685E-17   1.53152540483685E-08
      4.11034910171421E-17
      1.00000000000000E+04
      8.00000000000000E-01   0.00000000000000E+00  -2.46771747599451E+01  -4.55761396525235E-13   6.28155656680064E-16
     -1.85346650890652E-16  -6.24633604941178E-16   7.72461960865086E-17  -3.52205173901633E-18  -1.02363625734334E-08
     -6.13904413059434E-16   2.76565130639443E-08   6.50491145481362E-16  -1.74163450340909E-08  -3.65867324225452E-17
      1.02363624651126E-08  -1.42512436207582E-17  -2.76527074219443E-08  -2.58575405408132E-17   1.74169217682119E-08
      4.01087841612074E-17
      1.00000000000000E+04
      8.00000000000000E-01   0.00000000000000E+00  -2.51771747599451E+01  -1.51920465508412E-13   6.27944624847223E-16
     -1.71829006850614E-16  -6.24566339571253E-16   6.86719353476007E-17  -3.37828527612779E-18  -1.15144496641376E-08
     -6.13035057359759E-16   3.09378431984605E-08   6.48961345638390E-16  -1.94236699140677E-08  -3.59262882788638E-17
      1.15144495612042E-08  -1.49095674876231E-17  -3.09381194066003E-08  -2.43950060673737E-17   1.94234872766470E-08
      3.93045735551939E-17
      1.00000000000000E+04
      8.00000000000000E-01   0.00000000000000E+00  -2.56771747599451E+01   6.07681862033647E-13   6.27747602322986E-16
     -1.58791886706885E-16  -6.24498940793705E-16   6.09855859972911E-17  -3.24866152948700E-18  -1.27521827328661E-08
     -6.12262776238257E-16   3.40870025279844E-08   6.47673533913295E-16  -2.13336787141854E-08  -3.54107576750882E-17
      1.27521826354151E-08  -1.54848260849392E-17  -3.40858612886226E-08  -2.31745931196391E-17   2.13340390508808E-08
      3.86594192044279E-17
      1.00000000000000E+04
      8.00000000000000E-01   0.00000000000000E+00  -2.61771747599451E+01   3.03840931016824E-13   6.27562586755678E-16
     -1.46321527306650E-16  -6.24430739920342E-16   5.41932522864915E-17  -3.13184683544886E-18  -1.39483340444426E-08
     -6.11572720996370E-16   3.70968507906370E-08   6.46584959850646E-16  -2.31490815656490E-08  -3.50122388543469E-17
      1.39483339524748E-08  -1.59898657594310E-17  -3.70974154639553E-08  -2.21542199303640E-17   2.31491847727753E-08
      3.81440856902503E-17
      1.00000000000000E+04