DF-ISE text

Info {
  version   = 1.0
  type      = xyplot
  datasets  = [
    "frequency"
    "v(Ntop)" "v(Ptop)" "v(Pbot)" "a(Ntop,Ntop)" "c(Ntop,Ntop)"
    "a(Ntop,Ptop)" "c(Ntop,Ptop)" "a(Ntop,Pbot)" "c(Ntop,Pbot)" "a(Ptop,Ntop)"
    "c(Ptop,Ntop)" "a(Ptop,Ptop)" "c(Ptop,Ptop)" "a(Ptop,Pbot)" "c(Ptop,Pbot)"
    "a(Pbot,Ntop)" "c(Pbot,Ntop)" "a(Pbot,Ptop)" "c(Pbot,Ptop)" "a(Pbot,Pbot)"
    "c(Pbot,Pbot)" ]
  functions = [
    Frequency
    Voltage Voltage Voltage Admittance Capacitance
    Admittance Capacitance Admittance Capacitance Admittance
    Capacitance Admittance Capacitance Admittance Capacitance
    Admittance Capacitance Admittance Capacitance Admittance
    Capacitance ]
}

Data {
      1.00000000000000E+04
      8.00000000000000E-01   0.00000000000000E+00  -5.00000000000000E-02  -6.07681862033647E-13   1.17684782215132E-15
     -4.91308556526741E-15  -1.07166922120328E-15  -1.94765775681009E-15  -1.05178600948264E-16  -4.91447322461779E-15
     -1.07166922213698E-15  -3.03840931016824E-12   1.07168642148349E-15   9.26818620598778E-16  -1.71993457682113E-20
     -1.94614205144412E-15  -1.05178600014616E-16   9.25309002019315E-16  -1.72002794289954E-20   0.00000000000000E+00
      1.05195800293717E-16
      1.00000000000000E+04
      8.00000000000000E-01   0.00000000000000E+00  -1.45555555555556E-01  -6.07681862033647E-13   1.17269573219625E-15
     -4.87743494176558E-15  -1.07164994649472E-15  -1.81467961018091E-15  -1.01045785701712E-16  -4.87855403756667E-15
     -1.07164994746487E-15  -2.43072744813459E-12   1.07167396864125E-15   8.90506393426259E-16  -2.40211753761649E-20
     -1.81330800018188E-15  -1.01045784731557E-16   8.89134283285514E-16  -2.40221455306151E-20  -1.51920465508412E-13
      1.01069806876701E-16
      1.00000000000000E+04
      8.00000000000000E-01   0.00000000000000E+00  -3.28172839506173E-01  -1.51920465508412E-13   1.16594015490912E-15
     -4.81910471477641E-15  -1.07159119454526E-15  -1.60933073459205E-15  -9.43489603640855E-17  -4.81969033704766E-15
     -1.07159119557535E-15  -6.07681862033647E-13   1.07163531458937E-15   8.31752241583799E-16  -4.41190136458039E-20
     -1.60832148191043E-15  -9.43489593340352E-17   8.30751152541496E-16  -4.41200437064860E-20   4.55761396525235E-13
      9.43930793770037E-17
      1.00000000000000E+04
      8.00000000000000E-01   0.00000000000000E+00  -6.77174759945130E-01   3.03840931016824E-13   1.15587312551240E-15
     -4.73782138901422E-15  -1.07132856523533E-15  -1.33396644115140E-15  -8.45445602772615E-17  -4.73720120791680E-15
     -1.07132856635820E-15  -1.97496605160935E-12   1.07145712379773E-15   7.46135201380695E-16  -1.28557439196480E-19
     -1.33434711690549E-15  -8.45445591544140E-17   7.46514240703887E-16  -1.28558562045898E-19   1.51920465508412E-13
      8.46731177160681E-17
      1.00000000000000E+04
      8.00000000000000E-01   0.00000000000000E+00  -1.17717475994513E+00  -1.51920465508412E-13   1.14450288599336E-15
     -4.66426663730028E-15  -1.07005386105349E-15  -1.08114320763712E-15  -7.44490249401976E-17  -4.65789694152240E-15
     -1.07005386230513E-15  -3.34225024118506E-12   1.07055357054761E-15   6.58931544166540E-16  -4.99708242367285E-19
     -1.08720412123174E-15  -7.44490236885557E-17   6.64995937864328E-16  -4.99709494009381E-19  -4.55761396525235E-13
      7.49487331818319E-17
      1.00000000000000E+04
      8.00000000000000E-01   0.00000000000000E+00  -1.67717475994513E+00   0.00000000000000E+00   1.13266152100308E-15
     -4.60931047339473E-15  -1.06576393233426E-15  -9.09074638218369E-16  -6.68975886691228E-17  -4.58726442528413E-15
     -1.06576393379479E-15  -1.36728418957571E-12   1.06734130122517E-15   5.93259537091115E-16  -1.57736743041701E-18
     -9.31220616224006E-16  -6.68975872086309E-17   6.15411223858582E-16  -1.57736889091379E-18  -1.51920465508412E-13
      6.84749560987120E-17
      1.00000000000000E+04
      8.00000000000000E-01   0.00000000000000E+00  -2.17717475994513E+00  -3.03840931016824E-13   1.11413474012129E-15
     -4.47604983550990E-15  -1.05389649718768E-15  -7.65213048408653E-16  -6.02382429337895E-17  -4.41907805843257E-15
     -1.05389649902650E-15  -3.03840931016824E-13   1.05794249281049E-15   5.27121425882242E-16  -4.04599378452847E-18
     -8.22021599896945E-16  -6.02382410949859E-17   5.83932333431886E-16  -4.04599562333438E-18   4.55761396525235E-13
      6.42842367184382E-17
      1.00000000000000E+04
      8.00000000000000E-01   0.00000000000000E+00  -2.67717475994513E+00   0.00000000000000E+00   1.08104611552828E-15
     -4.06295756565715E-15  -1.02795475731645E-15  -6.17861734323135E-16  -5.30913582119687E-17  -3.94721607792210E-15
     -1.02795475973432E-15   1.51920465508412E-13   1.03639760413064E-15   4.35187493086914E-16  -8.44284439437755E-18
     -7.33465847146290E-16  -5.30913557941334E-17   5.50795906520195E-16  -8.44284681221536E-18  -1.51920465508412E-13
      6.15342026060779E-17
      1.00000000000000E+04
      8.00000000000000E-01   0.00000000000000E+00  -3.17717475994513E+00   3.03840931016824E-13   1.03308962423962E-15
     -3.30835496027438E-15  -9.87556489845454E-16  -4.57789903978157E-16  -4.55331343943324E-17  -3.12663455864412E-15
     -9.87556492765399E-16   4.55761396525235E-13   1.00175046277938E-15   3.20076737075557E-16  -1.41939700141245E-17
     -6.39533485582129E-16  -4.55331314744002E-17   5.01827111628629E-16  -1.41939729340578E-17   0.00000000000000E+00
      5.97271044073746E-17
      1.00000000000000E+04
      8.00000000000000E-01   0.00000000000000E+00  -3.67717475994513E+00   4.55761396525235E-13   9.84807018966909E-16
     -2.55281217335938E-15  -9.45734722380300E-16  -3.23833313369869E-16  -3.90722965867657E-17  -2.33853876888542E-15
     -9.45734725325440E-16  -3.03840931016824E-13   9.65244088221065E-16   2.24640747184389E-16  -1.95093628949181E-17
     -5.38083901607682E-16  -3.90722936416400E-17   4.38889825371423E-16  -1.95093658400448E-17   4.55761396525235E-13
      5.85816594811583E-17
      1.00000000000000E+04
      8.00000000000000E-01   0.00000000000000E+00  -4.17717475994513E+00   3.03840931016824E-13   9.47882992324124E-16
     -2.05126866746969E-15  -9.13378741510598E-16  -2.40849912897765E-16  -3.45042508137529E-17  -1.84852945692371E-15
     -9.13378744032024E-16  -1.82304558610094E-12   9.36754379369402E-16   1.69166071735325E-16  -2.33756353366235E-17
     -4.42898485328134E-16  -3.45042482923307E-17   3.71212202124784E-16  -2.33756378580456E-17  -1.51920465508412E-13
      5.78798861504062E-17
      1.00000000000000E+04
      8.00000000000000E-01   0.00000000000000E+00  -4.67717475994513E+00   1.36728418957571E-12   9.21166545033734E-16
     -1.70974772173838E-15  -8.89846739001636E-16  -1.88812392731589E-16  -3.13198060323393E-17  -1.55351213221279E-15
     -8.89846740883343E-16  -2.27880698262618E-12   9.15949320042561E-16   1.37108545300000E-16  -2.61025791589814E-17
     -3.45213317036136E-16  -3.13198041506399E-17   2.93511749752324E-16  -2.61025810406813E-17   0.00000000000000E+00
      5.74223851908126E-17
      1.00000000000000E+04
      8.00000000000000E-01   0.00000000000000E+00  -5.17717475994513E+00  -7.59602327542059E-13   9.00418697744085E-16
     -1.43964167701367E-15  -8.71522348383299E-16  -1.52358183925647E-16  -2.88963493610046E-17  -1.33608334447531E-15
     -8.71522349691304E-16   1.82304558610094E-12   8.99713660126143E-16   1.14659236795857E-16  -2.81913104342700E-17
     -2.57000906473367E-16  -2.88963480530035E-17   2.19300735430510E-16  -2.81913117422713E-17   4.55761396525235E-13
      5.70876597951717E-17
      1.00000000000000E+04
      8.00000000000000E-01   0.00000000000000E+00  -5.67717475994513E+00  -1.51920465508412E-13   8.82894665920242E-16
     -1.23839693607548E-15  -8.56015622807508E-16  -1.26969647623231E-16  -2.68790431128773E-17  -1.17125670085746E-15
     -8.56015623756214E-16   1.51920465508412E-13   8.85954024727387E-16   9.81488865747723E-17  -2.99384009706781E-17
     -1.94961319217692E-16  -2.68790421641820E-17   1.66141544626208E-16  -2.99384019193743E-17  -1.51920465508412E-13
      5.68174440830950E-17
      1.00000000000000E+04
      8.00000000000000E-01   0.00000000000000E+00  -6.17717475994513E+00   3.03840931016824E-13   8.67134320654896E-16
     -1.09243453079921E-15  -8.42044996095011E-16  -1.09053771091312E-16  -2.50893245600124E-17  -1.04580141347777E-15
     -8.42044996848735E-16  -1.21536372406729E-12   8.73540128164010E-16   8.56516149569758E-17  -3.14951313151391E-17
     -1.55822937457040E-16  -2.50893238062855E-17   1.32404375930412E-16  -3.14951320688657E-17   3.03840931016824E-13
      5.65844558746477E-17
      1.00000000000000E+04
      8.00000000000000E-01   0.00000000000000E+00  -6.67717475994513E+00   9.11522793050471E-13   8.52309680180879E-16
     -9.78216729587700E-16  -8.28878263542991E-16  -9.54235913521832E-17  -2.34314166380677E-17  -9.43660059504152E-16
     -8.28878264186210E-16   7.59602327542059E-13   8.61821774737173E-16   7.55359247855280E-17  -3.29435105499344E-17
     -1.30059079809693E-16  -2.34314159948570E-17   1.10172234861197E-16  -3.29435111931455E-17   0.00000000000000E+00
      5.63749271874867E-17
      1.00000000000000E+04
      8.00000000000000E-01   0.00000000000000E+00  -7.17717475994513E+00   1.21536372406729E-12   8.37861523095617E-16
     -8.83403721719082E-16  -8.16015494123415E-16  -8.41769620963790E-17  -2.18460289724288E-17  -8.55846049231287E-16
     -8.16015494697590E-16  -7.59602327542059E-13   8.50350539731935E-16   6.68187954389590E-17  -3.43350450331199E-17
     -1.11577654140441E-16  -2.18460283982628E-17   9.42367999861422E-17  -3.43350456072862E-17   1.51920465508412E-13
      5.61810740049458E-17
      1.00000000000000E+04
      8.00000000000000E-01   0.00000000000000E+00  -7.67717475994513E+00   9.11522793050471E-13   8.23318338838407E-16
     -7.98725787172271E-16  -8.03029333222332E-16  -7.42731630759112E-17  -2.02890056163222E-17  -7.75287467298202E-16
     -8.03029333749534E-16   2.12688651711777E-12   8.38738191243815E-16   5.89221309665982E-17  -3.57088574939544E-17
     -9.72682408412205E-17  -2.02890050891315E-17   8.19083839484876E-17  -3.57088580211459E-17  -1.51920465508412E-13
      5.59978631097972E-17
      1.00000000000000E+04
      8.00000000000000E-01   0.00000000000000E+00  -8.17717475994513E+00   9.11522793050471E-13   8.08190426536096E-16
     -7.18646000315332E-16  -7.89470055309939E-16  -6.51041157553878E-17  -1.87203712263732E-17  -6.99356859682231E-16
     -7.89470055803032E-16   7.59602327542059E-13   8.26571193494321E-16   5.14343614369293E-17  -3.71011376898099E-17
     -8.55004826134423E-17  -1.87203707332835E-17   7.18284926675773E-17  -3.71011381828999E-17   0.00000000000000E+00
      5.58215089150790E-17
      1.00000000000000E+04
      8.00000000000000E-01   0.00000000000000E+00  -8.67717475994513E+00   1.51920465508412E-13   7.91892140044188E-16
     -6.39295511910075E-16  -7.74794270880584E-16  -5.62156608757831E-17  -1.70978691637009E-17  -6.20830936714491E-16
     -7.74794271346805E-16  -7.59602327542059E-13   8.13345123731901E-16   4.39666528542947E-17  -3.85508523848874E-17
     -7.52015209161273E-17  -1.70978686974920E-17   6.29706399406246E-17  -3.85508528510968E-17  -1.51920465508412E-13
      5.56487215481926E-17
      1.00000000000000E+04
      8.00000000000000E-01   0.00000000000000E+00  -9.17717475994513E+00   0.00000000000000E+00   7.73699690876377E-16
     -5.55722393624524E-16  -7.58324700747273E-16  -4.71578407597251E-17  -1.53749901293077E-17  -5.37156397925774E-16
     -7.58324701188588E-16  -2.27880698262618E-12   7.98426236734413E-16   3.60421283618480E-17  -4.01015355442801E-17
     -6.52730272316630E-17  -1.53749896879988E-17   5.41575087656044E-17  -4.01015359855892E-17   0.00000000000000E+00
      5.54765256734146E-17
      1.00000000000000E+04
      8.00000000000000E-01   0.00000000000000E+00  -9.67717475994513E+00   1.51920465508412E-13   7.52851245476596E-16
     -4.59861500262177E-16  -7.39339927174207E-16  -3.76185488377947E-17  -1.35113183026196E-17  -4.42195075243646E-16
     -7.39339927587540E-16   0.00000000000000E+00   7.81131755444508E-16   2.69164068613241E-17  -4.17918278566048E-17
     -5.49827573539276E-17  -1.35113178892894E-17   4.42783153078707E-17  -4.17918282699350E-17  -3.03840931016824E-13
      5.53031461588759E-17
      1.00000000000000E+04
      8.00000000000000E-01   0.00000000000000E+00  -1.01771747599451E+01  -6.07681862033647E-13   7.29086514288166E-16
     -3.51202001769172E-16  -7.17571665223088E-16  -2.76011110581542E-17  -1.15148490652909E-17  -3.36465746583787E-16
     -7.17571665595313E-16  -9.11522793050471E-13   7.61187968819390E-16   1.50279652508867E-17  -4.36163032224746E-17
     -4.27616960848199E-17  -1.15148486930693E-17   3.01971542833428E-17  -4.36163035946961E-17  -1.51920465508412E-13
      5.51311522871251E-17
      1.00000000000000E+04
      8.00000000000000E-01   0.00000000000000E+00  -1.06771747599451E+01  -1.51920465508412E-13   7.03868126720482E-16
     -2.41993274101334E-16  -6.94344060281870E-16  -1.80138520174868E-17  -9.52406643877176E-18  -2.34878937841896E-16
     -6.94344060582948E-16   1.51920465508412E-13   7.39792617868144E-16  -4.48044844587135E-18  -4.54485572850803E-17
     -2.50340226088508E-17  -9.52406613769651E-18   2.53395899517254E-18  -4.54485575861555E-17   3.03840931016824E-13
      5.49726237230791E-17
      1.00000000000000E+04
      8.00000000000000E-01   0.00000000000000E+00  -1.11771747599451E+01   0.00000000000000E+00   6.81002638507624E-16
     -1.53729631013136E-16  -6.73178507293415E-16  -1.05947942270541E-17  -7.82413121431005E-18  -1.72260305453733E-16
     -6.73178507464666E-16  -2.12688651711777E-12   7.20202331172653E-16  -5.06796631328298E-17  -4.70238237066102E-17
      8.98807652067445E-18  -7.82413104306615E-18  -7.02520365034439E-17  -4.70238238778540E-17   0.00000000000000E+00
      5.48479549211401E-17
      1.00000000000000E+04
      8.00000000000000E-01   0.00000000000000E+00  -1.16771747599451E+01   1.51920465508412E-13   6.64091356329999E-16
     -9.79748287069092E-17  -6.57452775428534E-16  -6.19056325648561E-18  -6.63858090159125E-18  -2.02163915105199E-16
     -6.57452775331889E-16  -1.06344325855888E-12   7.05583556809963E-16  -1.95076788564066E-16  -4.81307814772952E-17
      9.72222611192096E-17  -6.63858099823757E-18  -2.98490461639948E-16  -4.81307813806489E-17   0.00000000000000E+00
      5.47693623793988E-17
      1.00000000000000E+04
      8.00000000000000E-01   0.00000000000000E+00  -1.21771747599451E+01   1.06344325855888E-12   6.53476323075189E-16
     -7.14795713594184E-17  -6.47538618093246E-16  -4.00257352289773E-18  -5.93770498212044E-18  -4.41158422339009E-16
     -6.47538617316360E-16   1.06344325855888E-12   6.96330727237879E-16  -6.81223624104755E-16  -4.87921099222151E-17
      3.65894758072705E-16  -5.93770575900741E-18  -1.05112154384520E-15  -4.87921091453281E-17   0.00000000000000E+00
      5.47298149044986E-17
      1.00000000000000E+04
      8.00000000000000E-01   0.00000000000000E+00  -1.26771747599451E+01  -3.03840931016824E-13   6.47255030226908E-16
     -5.75339180724643E-17  -6.41703694231762E-16  -2.88035396513633E-18  -5.55133599529741E-18  -1.27710512093180E-15
     -6.41703691479864E-16   1.06344325855888E-12   6.90866552125627E-16  -2.29569719908287E-15  -4.91628606462141E-17
      1.21658115165682E-15  -5.55133874719627E-18  -3.51513457135375E-15  -4.91628578943151E-17   4.55761396525235E-13
      5.47141966411885E-17
      1.00000000000000E+04
      8.00000000000000E-01   0.00000000000000E+00  -1.31771747599451E+01   1.51920465508412E-13   6.43532682964778E-16
     -5.00338055680428E-17  -6.38199628290999E-16  -2.15026899513342E-18  -5.33305467377164E-18  -3.93866039906089E-15
     -6.38199619609171E-16   7.59602327542059E-13   6.87577616924563E-16  -7.48634343078710E-15  -4.93779973150437E-17
      3.88655208176275E-15  -5.33306335560302E-18  -1.13750368538624E-14  -4.93779886332122E-17  -3.03840931016824E-13
      5.47110519879967E-17
      1.00000000000000E+04
      8.00000000000000E-01   0.00000000000000E+00  -1.36771747599451E+01   3.03840931016824E-13   6.41135562545435E-16
     -4.26236388692113E-17  -6.35937054503198E-16  -1.52782004931870E-18  -5.19850804230383E-18  -1.21054628998759E-14
     -6.35937028230596E-16   2.73456837915141E-12   6.85452754051103E-16  -2.35901459506950E-14  -4.95157258198448E-17
      1.20598660526065E-14  -5.19853431490831E-18  -3.56515385458380E-14  -4.95156995472403E-17   6.07681862033647E-13
      5.47142338610603E-17
      1.00000000000000E+04
      8.00000000000000E-01   0.00000000000000E+00  -1.41771747599451E+01  -1.51920465508412E-13   6.39446283959061E-16
     -3.77048036500616E-17  -6.34340555997903E-16  -9.06280292603098E-19  -5.10572796117222E-18  -3.63464988917246E-14
     -6.34340478949155E-16  -7.59602327542059E-13   6.83955600590757E-16  -7.17535668679703E-14  -4.96151216416164E-17
      3.63071090568338E-14  -5.10580500992357E-18  -1.08061562014954E-13  -4.96150445928650E-17   3.03840931016824E-13
      5.47208496023112E-17
      1.00000000000000E+04
      8.00000000000000E-01   0.00000000000000E+00  -1.46771747599451E+01  -9.11522793050471E-13   6.38153458515071E-16
     -3.39930102364820E-17  -6.33118885573843E-16  -2.18919081909701E-19  -5.03457294143245E-18  -1.05832693841320E-13
     -6.33118666681027E-16   1.82304558610094E-12   6.82813635715003E-16  -2.10511554644493E-13  -4.96949690329750E-17
      1.05799267475233E-13  -5.03479183424955E-18  -3.16311033140932E-13  -4.96947501401579E-17   3.03840931016824E-13
      5.47295419743322E-17
      1.00000000000000E+04
      8.00000000000000E-01   0.00000000000000E+00  -1.51771747599451E+01  -3.03840931016824E-13   6.37097881675818E-16
     -2.88763060310727E-17  -6.32122685206990E-16   6.65845937227557E-19  -4.97519646898668E-18  -2.97863193430079E-13
     -6.32122083830419E-16   4.10185256872712E-12   6.81886412309674E-16  -5.95279569179909E-13  -4.97643284788840E-17
      2.97834187907851E-13  -4.97579784555727E-18  -8.93113070803276E-13  -4.97637271023133E-17   4.55761396525235E-13
      5.47395249476723E-17
      1.00000000000000E+04
      8.00000000000000E-01   0.00000000000000E+00  -1.56771747599451E+01   9.11522793050471E-13   6.36194865987770E-16
     -2.70872703146816E-17  -6.31272333388628E-16   2.05099746291317E-18  -4.92253259926283E-18  -8.08771784384687E-13
     -6.31270738213635E-16   5.77297768931965E-12   6.81098173172471E-16  -1.62124356903913E-12  -4.98274349585615E-17
      8.08746083528821E-13  -4.92412777425684E-18  -2.42998757853219E-12  -4.98258397835675E-17   1.36728418957571E-12
      5.47499675565579E-17
      1.00000000000000E+04
      8.00000000000000E-01   0.00000000000000E+00  -1.61771747599451E+01   6.07681862033647E-13   6.35397028626102E-16
     -2.82010777889364E-17  -6.30523282891160E-16   4.61307040194412E-18  -4.87374573509602E-18  -2.11558388556871E-12
     -6.30519203623353E-16   9.57098932702994E-12   6.80404781855896E-16  -4.24884541605767E-12  -4.98855782313630E-17
      2.11556025891376E-12  -4.87782500290414E-18  -6.36440105317590E-12  -4.98814989635548E-17   4.70953443076077E-12
      5.47593239665078E-17
      1.00000000000000E+04
      8.00000000000000E-01   0.00000000000000E+00  -1.66771747599451E+01   1.51920465508412E-13   6.34676455828020E-16
     -3.38858274451701E-17  -6.29849451062241E-16   9.77255453519094E-18  -4.82700476588507E-18  -5.32399213898382E-12
     -6.29839409105961E-16   1.56478079473664E-11   6.79776615422327E-16  -1.07030681231059E-11  -4.99372063155253E-17
      5.32396821964048E-12  -4.83704672216952E-18  -1.60270265488323E-11  -4.99271643592408E-17   1.09382735166056E-11
      5.47642110815602E-17
      1.00000000000000E+04
      8.00000000000000E-01   0.00000000000000E+00  -1.71771747599451E+01   1.51920465508412E-13   6.34015976460914E-16
     -4.86071110225213E-17  -6.29235167385437E-16   2.02742616431501E-17  -4.78080907559911E-18  -1.28697050786759E-11
     -6.29211412562772E-16   3.90435596356618E-11   6.79187930461043E-16  -2.58780536526107E-11  -4.99765178983395E-17
      1.28696781398723E-11  -4.80456389826867E-18  -3.87477115193274E-11  -4.99527630756699E-17   2.59783996019384E-11
      5.47573269733350E-17
      1.00000000000000E+04
      8.00000000000000E-01   0.00000000000000E+00  -1.76771747599451E+01  -1.51920465508412E-13   6.33404802337434E-16
     -7.63838284147681E-17  -6.28671298540582E-16   4.06863893973714E-17  -4.73350379691664E-18  -2.98231519758547E-11
     -6.28617424178176E-16   9.29753248911480E-11   6.78607698130469E-16  -5.99353070080033E-11  -4.99902739524232E-17
      2.98231155135001E-11  -4.78737815932414E-18  -8.97583818320740E-11  -4.99363995900158E-17   5.95528224792974E-11
      5.47237777493563E-17
      1.00000000000000E+04
      8.00000000000000E-01   0.00000000000000E+00  -1.81771747599451E+01   0.00000000000000E+00   6.32836352813502E-16
     -1.31240912701958E-16  -6.28153536080479E-16   7.64523530442647E-17  -4.68281673310793E-18  -6.60705595348969E-11
     -6.28036768950669E-16   2.00990775867629E-10   6.77989284312697E-16  -1.32605529918779E-10  -4.99525153603387E-17
      6.60705050719088E-11  -4.79958386291978E-18  -1.98675958541266E-10  -4.98357482305269E-17   1.32018884526810E-10
      5.46353320934357E-17
      1.00000000000000E+04
      8.00000000000000E-01   0.00000000000000E+00  -1.86771747599451E+01  -7.59602327542059E-13   6.32307215197424E-16
     -2.09802028865091E-16  -6.27681825045621E-16   1.28831293980670E-16  -4.62539015192705E-18  -1.39412603635649E-10
     -6.27441045991468E-16   4.16869757355082E-10   6.77258880809868E-16  -2.79189184408328E-10  -4.98178348165802E-17
      1.39412522297733E-10  -4.86616920608358E-18  -4.18601577873375E-10  -4.95770557624237E-17   2.78925974673444E-10
      5.44432249681840E-17
      1.00000000000000E+04
      8.00000000000000E-01   0.00000000000000E+00  -1.91771747599451E+01  -1.51920465508412E-13   6.31816637566992E-16
     -3.00882490076886E-16  -6.27260168246569E-16   1.86582068693270E-16  -4.55646932048324E-18  -2.78787470207797E-10
     -6.26790653565444E-16   8.40575935658043E-10   6.76307374298554E-16  -5.56506980446125E-10  -4.95167207340766E-17
      2.78787356296196E-10  -5.02598400161270E-18  -8.35294150165775E-10  -4.90472060529469E-17   5.56180824226296E-10
      5.40731900537005E-17
      1.00000000000000E+04
      8.00000000000000E-01   0.00000000000000E+00  -1.96771747599451E+01   1.51920465508412E-13   6.31366047353400E-16
     -3.68936494433991E-16  -6.26895885441842E-16   2.27489482576444E-16  -4.47016191168263E-18  -5.25174406545924E-10
     -6.26036485336719E-16   1.57237681801206E-09   6.74997707098796E-16  -1.04372471716407E-09  -4.89612217619770E-17
      5.25174264973025E-10  -5.32956201680879E-18  -1.56889875468132E-09  -4.81018216568500E-17   1.04384551850830E-09
      5.34313836732459E-17
      1.00000000000000E+04
      8.00000000000000E-01   0.00000000000000E+00  -2.01771747599451E+01   3.03840931016824E-13   6.30958102051263E-16
     -3.93482876269931E-16  -6.26597315716810E-16   2.37334224042905E-16  -4.36078633460140E-18  -9.26213421028285E-10
     -6.25131935975474E-16   2.75963525596030E-09   6.73203039194351E-16  -1.83017251896407E-09  -4.80711032183405E-17
      9.26213264986175E-10  -5.82616607593915E-18  -2.75638554662309E-09  -4.66057234770040E-17   1.83048968891085E-09
      5.24318895516804E-17
      1.00000000000000E+04
      8.00000000000000E-01   0.00000000000000E+00  -2.06771747599451E+01  -1.51920465508412E-13   6.30595061120209E-16
     -3.78460033302440E-16  -6.26369757701841E-16   2.20978872530484E-16  -4.22530341840108E-18  -1.52228766535712E-09
     -6.24055155408777E-16   4.50960709815170E-09   6.70874269444520E-16  -2.98639073452255E-09  -4.68191140355632E-17
      1.52228750829563E-09  -6.53990571147096E-18  -4.50867802183868E-09  -4.45045117424947E-17   2.98614867003334E-09
      5.10444174533754E-17
      1.00000000000000E+04
      8.00000000000000E-01   0.00000000000000E+00  -2.11771747599451E+01   4.55761396525235E-13   6.30276994521109E-16
     -3.44053234352928E-16  -6.26211409202995E-16   1.92545646082972E-16  -4.06558531830694E-18  -2.32909621723356E-09
     -6.22828585657312E-16   6.86163974515293E-09   6.68096295720900E-16  -4.52987181061803E-09  -4.52677100632869E-17
      2.32909606565500E-09  -7.44840886399145E-18  -6.85896768372831E-09  -4.18848865176058E-17   4.53042020192635E-09
      4.93332953814078E-17
      1.00000000000000E+04
      8.00000000000000E-01   0.00000000000000E+00  -2.16771747599451E+01   6.07681862033647E-13   6.30000912716096E-16
     -3.08241186657370E-16  -6.26112291485380E-16   1.63802630885908E-16  -3.88862123096691E-18  -3.32870831277146E-09
     -6.21516875706208E-16   9.74083640746835E-09   6.65076626324494E-16  -6.41023818894023E-09  -4.35597506176200E-17
      3.32870816910467E-09  -8.48403701014360E-18  -9.73894619423800E-09  -3.89643348384535E-17   6.41013212166193E-09
      4.74483718478350E-17
      1.00000000000000E+04
      8.00000000000000E-01   0.00000000000000E+00  -2.21771747599451E+01  -6.07681862033647E-13   6.29761391893015E-16
     -2.77806736102851E-16  -6.26057219034961E-16   1.39710401603820E-16  -3.70417285824840E-18  -4.47656589422082E-09
     -6.20201047605290E-16   1.30042399270545E-08   6.62063485306096E-16  -8.52739740794898E-09  -4.18624377002021E-17
      4.47656575648114E-09  -9.56034428792464E-18  -1.30039630247368E-08  -3.60062662705294E-17   8.52729572898715E-09
      4.55666105579674E-17
      1.00000000000000E+04
      8.00000000000000E-01   0.00000000000000E+00  -2.26771747599451E+01   9.11522793050471E-13   6.29552079426146E-16
     -2.52336914714659E-16  -6.26030503984250E-16   1.20143105481930E-16  -3.52157544216346E-18  -5.71850004959600E-09
     -6.18949003326547E-16   1.64858012351108E-08   6.59256984625576E-16  -1.07682250217336E-08  -4.03079812980878E-17
      5.71849991721076E-09  -1.06030760998653E-17  -1.64867248188066E-08  -3.32264806403991E-17   1.07687302770983E-08
      4.38295567395336E-17
      1.00000000000000E+04
      8.00000000000000E-01   0.00000000000000E+00  -2.31771747599451E+01   3.03840931016824E-13   6.29367023323071E-16
     -2.29639181583508E-16  -6.26019360997397E-16   1.03636786534232E-16  -3.34766232584924E-18  -7.00582070361586E-09
     -6.17801108453732E-16   2.00451458215074E-08   6.56769108313326E-16  -1.30367103769983E-08  -3.89679998591375E-17
      7.00582057768943E-09  -1.15659148695121E-17  -2.00425308510242E-08  -3.07497473154894E-17   1.30367509066733E-08
      4.23156621855697E-17
      1.00000000000000E+04
      8.00000000000000E-01   0.00000000000000E+00  -2.36771747599451E+01  -3.03840931016824E-13   6.29201320488643E-16
     -2.08851483442478E-16  -6.26014990994432E-16   8.93048971347631E-17  -3.18632949433640E-18  -8.30236818946792E-09
     -6.16771886254172E-16   2.35665102915269E-08   6.54632767166396E-16  -1.52662169368258E-08  -3.78608809128877E-17
      8.30236807069998E-09  -1.24294342345946E-17  -2.35685849181945E-08  -2.86177761726401E-17   1.52660318175438E-08
      4.10472104071289E-17
      1.00000000000000E+04
      8.00000000000000E-01   0.00000000000000E+00  -2.41771747599451E+01  -4.55761396525235E-13   6.29051199390603E-16
     -1.88581973496061E-16  -6.26012093539975E-16   7.68747373892224E-17  -3.03910585082320E-18  -9.58481105989273E-09
     -6.15858802257262E-16   2.70031031417927E-08   6.52830848878428E-16  -1.74178947762909E-08  -3.69720466207597E-17
      9.58481094833583E-09  -1.31923971335427E-17  -2.70027056477732E-08  -2.68187553380400E-17   1.74172256091429E-08
      4.00111524715891E-17
      1.00000000000000E+04
      8.00000000000000E-01   0.00000000000000E+00  -2.46771747599451E+01  -1.51920465508412E-13   6.28913837185402E-16
     -1.71176542084951E-16  -6.26007853688615E-16   6.62590736113655E-17  -2.90598349700061E-18  -1.08398639495554E-08
     -6.15050798862700E-16   3.03136020056865E-08   6.51322937840429E-16  -1.94734570584122E-08  -3.62721389775100E-17
      1.08398638452157E-08  -1.38630383229138E-17  -3.03133208373536E-08  -2.53150841516082E-17   1.94731652688682E-08
      3.91781224745798E-17
      1.00000000000000E+04
      8.00000000000000E-01   0.00000000000000E+00  -2.51771747599451E+01  -1.51920465508412E-13   6.28787121977094E-16
     -1.53969078454548E-16  -6.26001007127747E-16   5.73209650003372E-17  -2.78611484948586E-18  -1.20610474056514E-08
     -6.14333986577453E-16   3.34866128482951E-08   6.50062466158672E-16  -2.14277342144803E-08  -3.57284795817184E-17
      1.20610473088342E-08  -1.44531353997742E-17  -3.34887814659547E-08  -2.40614590314420E-17   2.14277739780994E-08
      3.85145944309707E-17
      1.00000000000000E+04
      8.00000000000000E-01   0.00000000000000E+00  -2.56771747599451E+01   7.59602327542059E-13   6.28669449431513E-16
     -1.40802892374872E-16  -6.25991168817849E-16   4.98496624805313E-17  -2.67828061380881E-18  -1.32460766088679E-08
     -6.13694673866956E-16   3.65282124882391E-08   6.49005421562911E-16  -2.32830196891658E-08  -3.53107476958730E-17
      1.32460765186797E-08  -1.49747755647034E-17  -3.65290961580135E-08  -2.30142527449715E-17   2.32828747824227E-08
      3.79890283093147E-17
      1.00000000000000E+04
      8.00000000000000E-01   0.00000000000000E+00  -2.61771747599451E+01   3.03840931016824E-13   6.28559572927427E-16
     -1.28659798504449E-16  -6.25978409114245E-16   4.36104351478030E-17  -2.58116381341028E-18  -1.43950639111759E-08
     -6.13120664326905E-16   3.94390086073802E-08   6.48113751965581E-16  -2.50453649411179E-08  -3.49930876370991E-17
      1.43950638264013E-08  -1.54389086007534E-17  -3.94404287239180E-08  -2.21353428497590E-17   2.50448483413892E-08
      3.75742514505932E-17
      1.00000000000000E+04