DF-ISE text

Info {
  version   = 1.0
  type      = xyplot
  datasets  = [
    "frequency"
    "v(Ntop)" "v(Ptop)" "v(Pbot)" "a(Ntop,Ntop)" "c(Ntop,Ntop)"
    "a(Ntop,Ptop)" "c(Ntop,Ptop)" "a(Ntop,Pbot)" "c(Ntop,Pbot)" "a(Ptop,Ntop)"
    "c(Ptop,Ntop)" "a(Ptop,Ptop)" "c(Ptop,Ptop)" "a(Ptop,Pbot)" "c(Ptop,Pbot)"
    "a(Pbot,Ntop)" "c(Pbot,Ntop)" "a(Pbot,Ptop)" "c(Pbot,Ptop)" "a(Pbot,Pbot)"
    "c(Pbot,Pbot)" ]
  functions = [
    Frequency
    Voltage Voltage Voltage Admittance Capacitance
    Admittance Capacitance Admittance Capacitance Admittance
    Capacitance Admittance Capacitance Admittance Capacitance
    Admittance Capacitance Admittance Capacitance Admittance
    Capacitance ]
}

Data {
      1.00000000000000E+04
      8.00000000000000E-01   0.00000000000000E+00  -5.00000000000000E-02   0.00000000000000E+00   8.07399763465518E-16
     -2.16468840328323E-15  -7.02220000427891E-16  -1.36525882786002E-15  -1.05179763037771E-16  -2.16623558842949E-15
     -7.02220000717948E-16  -6.07681862033647E-13   7.02236412916913E-16   4.46424537420894E-16  -1.64121980160411E-20
     -1.36377305852994E-15  -1.05179762747726E-16   4.44938447482196E-16  -1.64124880626069E-20  -1.51920465508412E-13
      1.05196175235021E-16
      1.00000000000000E+04
      8.00000000000000E-01   0.00000000000000E+00  -1.45555555555556E-01   3.03840931016824E-13   8.03249155342984E-16
     -2.14775964658891E-15  -7.02201766084485E-16  -1.25902276081092E-15  -1.01047389258625E-16  -2.14914588784013E-15
     -7.02201766400618E-16  -4.55761396525235E-13   7.02224689008886E-16   4.28998173599118E-16  -2.29226078374250E-20
     -1.25767625868118E-15  -1.01047388942485E-16   4.27646715422018E-16  -2.29229239714739E-20   0.00000000000000E+00
      1.01070311866374E-16
      1.00000000000000E+04
      8.00000000000000E-01   0.00000000000000E+00  -3.28172839506173E-01   3.03840931016824E-13   7.96498047786692E-16
     -2.12089335402871E-15  -7.02146198612738E-16  -1.09634762942221E-15  -9.43518491740609E-17  -2.12192284488363E-15
     -7.02146198972333E-16  -6.07681862033647E-13   7.02188300194115E-16   4.00858055198869E-16  -4.21012198206925E-20
     -1.09534814728811E-15  -9.43518488144905E-17   3.99867349911599E-16  -4.21015794006282E-20   3.03840931016824E-13
      9.43939503934793E-17
      1.00000000000000E+04
      8.00000000000000E-01   0.00000000000000E+00  -6.77174759945130E-01  -1.51920465508412E-13   7.86450692647273E-16
     -2.08593641942652E-15  -7.01897943071739E-16  -8.82030762348894E-16  -8.45527495756570E-17  -2.08557362663555E-15
     -7.01897943500056E-16  -2.58264791364300E-12   7.02020597338003E-16   3.60135361740505E-16  -1.22653837550033E-19
     -8.82366311104949E-16  -8.45527491473555E-17   3.60473745091702E-16  -1.22654265855327E-19   3.03840931016824E-13
      8.46754034131764E-17
      1.00000000000000E+04
      8.00000000000000E-01   0.00000000000000E+00  -1.17717475994513E+00   1.51920465508412E-13   7.75174807409182E-16
     -2.06755791972629E-15  -7.00694774690952E-16  -6.90622319982660E-16  -7.44800327183042E-17  -2.06176511106575E-15
     -7.00694775220078E-16  -1.67112512059253E-12   7.01171120768296E-16   3.19614677718231E-16  -4.76345547322673E-19
     -6.96378086744617E-16  -7.44800321892124E-17   3.25383933795463E-16  -4.76346076421790E-19  -4.55761396525235E-13
      7.49563782658532E-17
      1.00000000000000E+04
      8.00000000000000E-01   0.00000000000000E+00  -1.67717475994513E+00   9.11522793050471E-13   7.63653298785286E-16
     -2.08259642839966E-15  -6.96658856851451E-16  -5.64805522320736E-16  -6.69944419339849E-17  -2.06148752296515E-15
     -6.96658857555194E-16   7.59602327542059E-13   6.98159371453169E-16   2.90494500357928E-16  -1.50051389751851E-18
     -5.85855435868894E-16  -6.69944412302468E-17   3.11544082100559E-16  -1.50051460125733E-18   4.55761396525235E-13
      6.84949558315749E-17
      1.00000000000000E+04
      8.00000000000000E-01   0.00000000000000E+00  -2.17717475994513E+00  -6.07681862033647E-13   7.46044041349715E-16
     -2.08258022194527E-15  -6.85553661996662E-16  -4.65000767434272E-16  -6.04903793531480E-17  -2.02879541667279E-15
     -6.85553663029134E-16  -1.97496605160935E-12   6.89389506005158E-16   2.60816737676579E-16  -3.83584297541037E-18
     -5.18735349898235E-16  -6.04903783206822E-17   3.14548838605687E-16  -3.83584400787671E-18  -3.03840931016824E-13
      6.43262223283716E-17
      1.00000000000000E+04
      8.00000000000000E-01   0.00000000000000E+00  -2.67717475994513E+00   1.51920465508412E-13   7.15025703793073E-16
     -1.93842864176138E-15  -6.61397752124079E-16  -3.70786116813601E-16  -5.36279516690915E-17  -1.82965690598433E-15
     -6.61397753671406E-16   7.59602327542059E-13   6.69375468545759E-16   2.14536083456193E-16  -7.97771487362873E-18
     -4.79641207059849E-16  -5.36279501217707E-17   3.23393300459690E-16  -7.97771642095001E-18  -1.51920465508412E-13
      6.16056665418443E-17
      1.00000000000000E+04
      8.00000000000000E-01   0.00000000000000E+00  -3.17717475994513E+00  -6.07681862033647E-13   6.70142182219444E-16
     -1.57479248841089E-15  -6.23722649130015E-16  -2.69503953163437E-16  -4.64195330895739E-17  -1.40363588343167E-15
     -6.23722651148664E-16  -9.11522793050471E-13   6.37128645122606E-16   1.50983427034634E-16  -1.34059939733271E-17
     -4.40698759768360E-16  -4.64195310709294E-17   3.22176677808977E-16  -1.34059959919721E-17   1.51920465508412E-13
      5.98255270630578E-17
      1.00000000000000E+04
      8.00000000000000E-01   0.00000000000000E+00  -3.67717475994513E+00   7.59602327542059E-13   6.24591303026320E-16
     -1.17656230532959E-15  -5.84372688464119E-16  -1.82193624457748E-16  -4.02186145622686E-17  -9.73455096508542E-16
     -5.84372690565319E-16  -7.59602327542059E-13   6.02847328813564E-16   9.67706303574826E-17  -1.84746382468451E-17
     -3.85330667180241E-16  -4.02186124610767E-17   2.99908373770015E-16  -1.84746403480377E-17   3.03840931016824E-13
      5.86932528080344E-17
      1.00000000000000E+04
      8.00000000000000E-01   0.00000000000000E+00  -4.17717475994513E+00   4.55761396525235E-13   5.89636150070870E-16
     -9.15354640938750E-16  -5.53829171163121E-16  -1.28357847599212E-16  -3.58069789078150E-17  -7.21237652980539E-16
     -5.53829172958074E-16  -7.59602327542059E-13   5.76017376899484E-16   6.69534641754419E-17  -2.21882039401854E-17
     -3.22546645336773E-16  -3.58069771128639E-17   2.61151279846321E-16  -2.21882057351365E-17   0.00000000000000E+00
      5.79951828475001E-17
      1.00000000000000E+04
      8.00000000000000E-01   0.00000000000000E+00  -4.67717475994513E+00  -3.03840931016824E-13   5.64636781312066E-16
     -7.34079411496271E-16  -5.31889849497246E-16  -9.47204984460665E-17  -3.27469318149138E-17  -5.81007338221412E-16
     -5.31889850780621E-16  -3.94993210321871E-12   5.56683243283478E-16   5.11041924790548E-17  -2.47933925024566E-17
     -2.47752488115983E-16  -3.27469305315441E-17   2.04142406253697E-16  -2.47933937858265E-17   3.03840931016824E-13
      5.75403243165714E-17
      1.00000000000000E+04
      8.00000000000000E-01   0.00000000000000E+00  -5.17717475994513E+00  -6.07681862033647E-13   5.45661040059204E-16
     -5.78007714242232E-16  -5.15210808337928E-16  -7.09281334898881E-17  -3.04502317213395E-17  -4.74246155087880E-16
     -5.15210809141179E-16  -7.59602327542059E-13   5.41970405806399E-16   3.99631738369901E-17  -2.67595966655163E-17
     -1.74678084267639E-16  -3.04502309180972E-17   1.43722383353090E-16  -2.67595974687592E-17  -4.55761396525235E-13
      5.72098283859298E-17
      1.00000000000000E+04
      8.00000000000000E-01   0.00000000000000E+00  -5.67717475994513E+00  -1.51920465508412E-13   5.30072805784709E-16
     -4.61422691970258E-16  -5.01500716155096E-16  -5.49364888669469E-17  -2.85720896296960E-17  -3.94011340475661E-16
     -5.01500716651438E-16  -3.03840931016824E-13   5.29874281225514E-16   3.19892914742393E-17  -2.83735645735501E-17
     -1.22358300803671E-16  -2.85720891333578E-17   9.94219433323341E-17  -2.83735650698886E-17   4.55761396525235E-13
      5.69456542029400E-17
      1.00000000000000E+04
      8.00000000000000E-01   0.00000000000000E+00  -6.17717475994513E+00   4.55761396525235E-13   5.16479636402299E-16
     -3.83933920158255E-16  -4.89540676974630E-16  -4.46828109118588E-17  -2.69389594277111E-17  -3.38018548920042E-16
     -4.89540677306980E-16  -7.59602327542059E-13   5.19322197582795E-16   2.64924948653718E-17  -2.97815202764024E-17
     -9.06291028192965E-17  -2.69389590953630E-17   7.24402052012433E-17  -2.97815206087505E-17  -1.51920465508412E-13
      5.67204797041109E-17
      1.00000000000000E+04
      8.00000000000000E-01   0.00000000000000E+00  -6.67717475994513E+00   3.03840931016824E-13   5.04137248317716E-16
     -3.30730103066096E-16  -4.78676317054767E-16  -3.77085100257217E-17  -2.54609312630173E-17  -2.97223813749841E-16
     -4.78676317297786E-16  -2.88648884465982E-12   5.09736081698315E-16   2.24593238881935E-17  -3.10597643996114E-17
     -7.12688013454395E-17  -2.54609310199987E-17   5.60151881193867E-17  -3.10597646426300E-17  -3.03840931016824E-13
      5.65206956620075E-17
      1.00000000000000E+04
      8.00000000000000E-01   0.00000000000000E+00  -7.17717475994513E+00  -4.55761396525235E-13   4.92610408460531E-16
     -2.91318463047775E-16  -4.68523041837486E-16  -3.24845335445798E-17  -2.40873666230966E-17  -2.65231018270671E-16
     -4.68523042027202E-16  -3.03840931016824E-13   5.00774624310590E-16   1.92488916068560E-17  -3.22515822822946E-17
     -5.85653098819395E-17  -2.40873664333820E-17   4.53334806527174E-17  -3.22515824720093E-17  -3.03840931016824E-13
      5.63389489044789E-17
      1.00000000000000E+04
      8.00000000000000E-01   0.00000000000000E+00  -7.67717475994513E+00  -1.51920465508412E-13   4.81615685975435E-16
     -2.59939799433515E-16  -4.58828626956063E-16  -2.82349324249986E-17  -2.27870590194220E-17  -2.38551551927111E-16
     -4.58828627110977E-16  -1.51920465508412E-12   4.92212521025415E-16   1.65334526353146E-17  -3.33838939154001E-17
     -4.96111559492654E-17  -2.27870588645077E-17   3.79010441818139E-17  -3.33838940703145E-17   1.51920465508412E-13
      5.61709529337159E-17
      1.00000000000000E+04
      8.00000000000000E-01   0.00000000000000E+00  -8.17717475994513E+00   4.55761396525235E-13   4.70948702042503E-16
     -2.33754430999975E-16  -4.49409488501503E-16  -2.46034274771040E-17  -2.15392135410955E-17  -2.15476176897132E-16
     -4.49409488632080E-16  -6.07681862033647E-13   4.83884334681587E-16   1.41398066031754E-17  -3.44748460488525E-17
     -4.29640586441819E-17  -2.15392134105206E-17   3.24995674549271E-17  -3.44748461794274E-17   1.51920465508412E-13
      5.60140595893751E-17
      1.00000000000000E+04
      8.00000000000000E-01   0.00000000000000E+00  -8.67717475994513E+00  -6.07681862033647E-13   4.60448258682846E-16
     -2.11223406627635E-16  -4.40119200148718E-16  -2.14314584184130E-17  -2.03290585341778E-17  -1.94758126120554E-16
     -4.40119200261223E-16  -3.19032977567665E-12   4.75656707302181E-16   1.19508033126118E-17  -3.55375070410595E-17
     -3.78658046659717E-17  -2.03290584216746E-17   2.83879978076757E-17  -3.55375071535627E-17   4.55761396525235E-13
      5.58665655749405E-17
      1.00000000000000E+04
      8.00000000000000E-01   0.00000000000000E+00  -9.17717475994513E+00  -1.51920465508412E-13   4.49977680900189E-16
     -1.90889394351159E-16  -4.30832086518110E-16  -1.86071040559499E-17  -1.91455943821097E-17  -1.76051845575009E-16
     -4.30832086615744E-16  -1.21536372406729E-12   4.67413843443358E-16   9.83256410265324E-18  -3.65817568262277E-17
     -3.35670102025360E-17  -1.91455942844766E-17   2.47911816160535E-17  -3.65817569238610E-17   1.51920465508412E-13
      5.57273512086348E-17
      1.00000000000000E+04
      8.00000000000000E-01   0.00000000000000E+00  -9.67717475994513E+00   3.03840931016824E-13   4.39416456005691E-16
     -1.72209190184454E-16  -4.21435875054272E-16  -1.60670973261239E-17  -1.79805809514755E-17  -1.59071796628078E-16
     -4.21435875137584E-16  -6.07681862033647E-13   4.59050995621236E-16   7.46483546582446E-18  -3.76151204829162E-17
     -2.92727671421830E-17  -1.79805808681653E-17   2.06594707730206E-17  -3.76151205662266E-17   0.00000000000000E+00
      5.55957014342945E-17
      1.00000000000000E+04
      8.00000000000000E-01   0.00000000000000E+00  -1.01771747599451E+01   4.55761396525235E-13   4.28661064920578E-16
     -1.54839873469338E-16  -4.11832556560903E-16  -1.38069288889420E-17  -1.68285083597134E-17  -1.45223339240138E-16
     -4.11832556625947E-16  -1.51920465508412E-13   4.50475299593071E-16   3.81444851872373E-18  -3.86427429661468E-17
     -2.34979561311745E-17  -1.68285082946699E-17   1.34897310885211E-17  -3.86427430311905E-17   6.07681862033647E-13
      5.54712513257556E-17
      1.00000000000000E+04
      8.00000000000000E-01   0.00000000000000E+00  -1.06771747599451E+01   7.59602327542059E-13   4.17636730547951E-16
     -1.38330212074793E-16  -4.01949209216101E-16  -1.17688962729748E-17  -1.56875213319211E-17  -1.39058726173191E-16
     -4.01949209245083E-16   7.59602327542059E-13   4.41615712813523E-16  -4.64969400107629E-18  -3.96665035673431E-17
     -1.10223662458313E-17  -1.56875213029403E-17  -5.38232065779616E-18  -3.96665035963239E-17   3.03840931016824E-13
      5.53540248992777E-17
      1.00000000000000E+04
      8.00000000000000E-01   0.00000000000000E+00  -1.11771747599451E+01  -4.55761396525235E-13   4.06322557388589E-16
     -1.22323661896588E-16  -3.91761308682292E-16  -9.91108637719111E-18  -1.45612487063707E-17  -1.56260206662985E-16
     -3.91761308617278E-16  -3.03840931016824E-13   4.32444594095350E-16  -3.00702181163791E-17  -4.06832854777312E-17
      2.40249154150934E-17  -1.45612487713854E-17  -6.40007919881369E-17  -4.06832854127164E-17   1.51920465508412E-13
      5.52445341838310E-17
      1.00000000000000E+04
      8.00000000000000E-01   0.00000000000000E+00  -1.16771747599451E+01   1.51920465508412E-13   3.94789176842176E-16
     -1.06961438736328E-16  -3.81328053150038E-16  -8.22761162972446E-18  -1.34611236922107E-17  -2.45913385555157E-16
     -3.81328052814318E-16   7.59602327542059E-13   4.23010806051866E-16  -1.13720547935708E-16  -4.16827532368715E-17
      1.30660521589054E-16  -1.34611240279301E-17  -2.52600838359047E-16  -4.16827529011520E-17  -1.51920465508412E-13
      5.51438769285010E-17
      1.00000000000000E+04
      8.00000000000000E-01   0.00000000000000E+00  -1.21771747599451E+01  -6.07681862033647E-13   3.83236843263737E-16
     -9.25162029797593E-17  -3.70828933482116E-16  -6.72700767175314E-18  -1.24079097816583E-17  -5.56414672208863E-16
     -3.70828932353200E-16  -1.36728418957571E-12   4.13474738299386E-16  -3.92184001566520E-16  -4.26458059457413E-17
      4.57255327915973E-16  -1.24079109105741E-17  -8.56171022177187E-16  -4.26458048168254E-17   1.51920465508412E-13
      5.50537157269109E-17
      1.00000000000000E+04
      8.00000000000000E-01   0.00000000000000E+00  -1.26771747599451E+01  -6.07681862033647E-13   3.72004476980925E-16
     -7.93843474873561E-17  -3.60574311393869E-16  -5.42324410952627E-18  -1.14301655871263E-17  -1.52790958599440E-15
     -3.60574307962341E-16  -3.03840931016824E-13   4.04120129217060E-16  -1.30525866611360E-15  -4.35458212540317E-17
      1.44317680242762E-15  -1.14301690186547E-17  -2.75385322239115E-15  -4.35458178225033E-17  -1.51920465508412E-13
      5.49759868407528E-17
      1.00000000000000E+04
      8.00000000000000E-01   0.00000000000000E+00  -1.31771747599451E+01   9.11522793050471E-13   3.61514998323555E-16
     -6.80155989869773E-17  -3.50957138522113E-16  -4.32101135987074E-18  -1.05578598014915E-17  -4.43500931081956E-15
     -3.50957128512023E-16   1.21536372406729E-12   3.95311559214568E-16  -4.22673091621892E-15  -4.43544307017233E-17
      4.36265222852509E-15  -1.05578698115820E-17  -8.59368105749661E-15  -4.43544206916327E-17   1.51920465508412E-13
      5.49122905025772E-17
      1.00000000000000E+04
      8.00000000000000E-01   0.00000000000000E+00  -1.36771747599451E+01   3.03840931016824E-13   3.52157198357492E-16
     -5.86730582653183E-17  -3.42344454703268E-16  -3.40232092703430E-18  -9.81274365427423E-18  -1.28998588734449E-14
     -3.42344426215270E-16  -2.88648884465982E-12   3.87394882464383E-16  -1.33076684531587E-14  -4.50504562474122E-17
      1.28377723013771E-14  -9.81277214227339E-18  -2.61488380085143E-14  -4.50504277594131E-17   6.07681862033647E-13
      5.48631999008028E-17
      1.00000000000000E+04
      8.00000000000000E-01   0.00000000000000E+00  -1.41771747599451E+01   4.55761396525235E-13   3.44165490511281E-16
     -5.14169130661144E-17  -3.34964434200304E-16  -2.61939174119360E-18  -9.20105631103213E-18  -3.69968664669471E-14
     -3.34964354727145E-16  -3.03840931016824E-13   3.80591230084625E-16  -4.06522229208020E-14  -4.56268753568513E-17
      3.69428188473127E-14  -9.20113578419081E-18  -7.75976799744676E-14  -4.56267958836928E-17   3.03840931016824E-13
      5.48279316679851E-17
      1.00000000000000E+04
      8.00000000000000E-01   0.00000000000000E+00  -1.46771747599451E+01  -3.03840931016824E-13   3.37573292462083E-16
     -4.59670214867848E-17  -3.28860017262768E-16  -1.89193944289989E-18  -8.71327519932719E-18  -1.04036491285929E-13
     -3.28859799894561E-16   2.73456837915141E-12   3.74951120537344E-16  -1.20251741721671E-13  -4.60913206431986E-17
      1.03988625377314E-13  -8.71349256753392E-18  -2.24242253410844E-13  -4.60911032749919E-17   4.55761396525235E-13
      5.48045958426117E-17
      1.00000000000000E+04
      8.00000000000000E-01   0.00000000000000E+00  -1.51771747599451E+01  -1.51920465508412E-13   3.32254284599997E-16
     -4.20878001148273E-17  -3.23924359657832E-16  -1.09139894788331E-18  -8.32992494222705E-18  -2.85851949744287E-13
     -3.23923777967465E-16   6.98834141338694E-12   3.70384618324462E-16  -3.43871760226260E-13  -4.64608403557616E-17
      2.85808783003222E-13  -8.33050663259425E-18  -6.29681634322325E-13  -4.64602586653944E-17  -1.51920465508412E-13
      5.47907652977572E-17
      1.00000000000000E+04
      8.00000000000000E-01   0.00000000000000E+00  -1.56771747599451E+01  -4.55761396525235E-13   3.28002749980604E-16
     -3.96551453789383E-17  -3.19974102755819E-16   6.23690330007630E-21  -8.02864722483106E-18  -7.64968793725208E-13
     -3.19972584383735E-16   1.97496605160935E-12   3.66727841765700E-16  -9.49242631168699E-13  -4.67552573817096E-17
      7.64929155977313E-13  -8.03016559691545E-18  -1.71417178248481E-12  -4.67537390096252E-17   9.11522793050471E-13
      5.47839046068269E-17
      1.00000000000000E+04
      8.00000000000000E-01   0.00000000000000E+00  -1.61771747599451E+01   6.07681862033647E-13   3.24601604925745E-16
     -3.92633466859486E-17  -3.16812631170731E-16   1.84559679641948E-18  -7.78897375509456E-18  -1.98772205749396E-12
     -3.16808777900892E-16   9.26714839601312E-12   3.63801154996131E-16  -2.52616585231194E-12  -4.69923770946431E-17
      1.98768456676462E-12  -7.79282702493363E-18  -4.51384857083883E-12  -4.69885238248040E-17   2.73456837915141E-12
      5.47813508499972E-17
      1.00000000000000E+04
      8.00000000000000E-01   0.00000000000000E+00  -1.66771747599451E+01  -4.55761396525235E-13   3.21859549050921E-16
     -4.24354147455270E-17  -3.14265334185345E-16   5.35329495573461E-18  -7.59421486562594E-18  -5.00059004927539E-12
     -3.14255857114438E-16   1.10901939821141E-11   3.61441330105148E-16  -6.47249376217150E-12  -4.71854729903421E-17
      5.00055289748124E-12  -7.60369193653284E-18  -1.14730413124723E-11  -4.71759959194352E-17   6.22873908584488E-12
      5.47796878555865E-17
      1.00000000000000E+04
      8.00000000000000E-01   0.00000000000000E+00  -1.71771747599451E+01   1.51920465508412E-13   3.19623144567453E-16
     -5.22362982053596E-17  -3.12191708364459E-16   1.24027824742230E-17  -7.43143620299639E-18  -1.21464333442450E-11
     -3.12169186745779E-16   2.74976042570225E-11   3.59511042831781E-16  -1.59425075519169E-11  -4.73418560846963E-17
      1.21463935210785E-11  -7.45395782167688E-18  -2.80888886759223E-11  -4.73193344660158E-17   1.59516488783832E-11
      5.47732922872019E-17
      1.00000000000000E+04
      8.00000000000000E-01   0.00000000000000E+00  -1.76771747599451E+01   3.03840931016824E-13   3.17775544523897E-16
     -7.46742002206924E-17  -3.10484989999536E-16   2.63999526197394E-17  -7.29055452441067E-18  -2.84074604972293E-11
     -3.10433435912873E-16   6.65411638926844E-11   3.57894507916982E-16  -3.76804447493188E-11  -4.74610720033180E-17
      2.84074122425943E-11  -7.34210861107403E-18  -6.60878306001988E-11  -4.74095179166547E-17   3.76762754460861E-11
      5.47516265272849E-17
      1.00000000000000E+04
      8.00000000000000E-01   0.00000000000000E+00  -1.81771747599451E+01  -6.07681862033647E-13   3.16230446225494E-16
     -1.18638849004632E-16  -3.09067302645930E-16   5.23390695312619E-17  -7.16314357960193E-18  -6.37719867489135E-11
     -3.08954025523493E-16   1.51768545042903E-10   3.56485620592027E-16  -8.52499295989624E-11  -4.75315950687528E-17
      6.37719204579543E-11  -7.27642070204007E-18  -1.49021797741870E-10  -4.74183179463147E-17   8.49235402192022E-11
      5.46947386482959E-17
      1.00000000000000E+04
      8.00000000000000E-01   0.00000000000000E+00  -1.86771747599451E+01  -7.59602327542059E-13   3.14925608239964E-16
     -1.91615581608842E-16  -3.07884399540470E-16   9.43227022006985E-17  -7.04120869950650E-18  -1.36903275815453E-10
     -3.07646525225593E-16   3.22527148274358E-10   3.55172168176763E-16  -1.84014961588334E-10  -4.75256429506530E-17
      1.36903178427700E-10  -7.27908301438346E-18  -3.20918045700464E-10  -4.72877686357761E-17   1.83975683730687E-10
      5.45668516493715E-17
      1.00000000000000E+04
      8.00000000000000E-01   0.00000000000000E+00  -1.91771747599451E+01  -6.07681862033647E-13   3.13817449145468E-16
     -2.88105606245048E-16  -3.06901319878313E-16   1.48594329414841E-16  -6.91612926719766E-18  -2.79726300140510E-10
     -3.06426592481473E-16   6.59182899840999E-10   3.53820167008590E-16  -3.77273403870821E-10  -4.73935745253484E-17
      2.79726160535665E-10  -7.39085666403856E-18  -6.56999415828429E-10  -4.69188471285073E-17   3.77370436322895E-10
      5.43097037926054E-17
      1.00000000000000E+04
      8.00000000000000E-01   0.00000000000000E+00  -1.96771747599451E+01  -1.51920465508412E-13   3.12876718532945E-16
     -3.79907491780718E-16  -3.06098548520272E-16   1.98182505528265E-16  -6.77817001273489E-18  -5.40845124578769E-10
     -3.05204435395158E-16   1.27309350096049E-09   3.52267473591983E-16  -7.30539244295667E-10  -4.70630381949595E-17
      5.40844942884509E-10  -7.67228313784959E-18  -1.27138398900561E-09  -4.61689250698450E-17   7.31345120957494E-10
      5.38412082073596E-17
      1.00000000000000E+04
      8.00000000000000E-01   0.00000000000000E+00  -2.01771747599451E+01  -1.51920465508412E-13   3.12084474976869E-16
     -4.33262970368248E-16  -3.05467233924702E-16   2.23545104653490E-16  -6.61724105221379E-18  -9.83212943747212E-10
     -3.03890385851344E-16   2.31359676922760E-09   3.50342557320992E-16  -1.32754348615996E-09  -4.64521714693780E-17
      9.83212734042652E-10  -8.19408912557342E-18  -2.31075599669986E-09  -4.48753233960174E-17   1.32763294807801E-09
      5.30694125211987E-17
      1.00000000000000E+04
      8.00000000000000E-01   0.00000000000000E+00  -2.06771747599451E+01  -4.55761396525235E-13   3.11427569188293E-16
     -4.39465604627507E-16  -3.05002167314376E-16   2.20586511730225E-16  -6.42540187397276E-18  -1.67090350181573E-09
     -3.02416490466938E-16   3.92152297616863E-09   3.47919993815677E-16  -2.25099041284126E-09  -4.55035033476954E-17
      1.67090328294918E-09  -9.01107872141102E-18  -3.92189347521623E-09  -4.29178265002578E-17   2.25100553743814E-09
      5.19289052207414E-17
      1.00000000000000E+04
      8.00000000000000E-01   0.00000000000000E+00  -2.11771747599451E+01  -1.51920465508412E-13   3.10893798464417E-16
     -4.12974755968883E-16  -3.04693455392942E-16   1.99314849443005E-16  -6.20034307151903E-18  -2.64591942685198E-09
     -3.00766355498389E-16   6.19546850389854E-09   3.44993362421661E-16  -3.55006997547907E-09  -4.42270069224226E-17
      2.64591921317457E-09  -1.01274429660724E-17  -6.19598898935097E-09  -4.02999070278692E-17   3.54992551753506E-09
      5.04273499927049E-17
      1.00000000000000E+04
      8.00000000000000E-01   0.00000000000000E+00  -2.16771747599451E+01   3.03840931016824E-13   3.10468358691994E-16
     -3.73732195074166E-16  -3.04520935658748E-16   1.71802055444513E-16  -5.94742303326379E-18  -3.90759494118684E-09
     -2.98989149065830E-16   9.11978554446996E-09   3.41707530428008E-16  -5.21305229601949E-09  -4.27183813616199E-17
      3.90759473921570E-09  -1.14792096261799E-17  -9.12064686342605E-09  -3.71865947687061E-17   5.21345461485217E-09
      4.86658043942847E-17
      1.00000000000000E+04
      8.00000000000000E-01   0.00000000000000E+00  -2.21771747599451E+01  -9.11522793050471E-13   3.10133308706162E-16
     -3.36475743661126E-16  -3.04455140838775E-16   1.46333303640306E-16  -5.67816786743429E-18  -5.41054225008546E-09
     -2.97179396174804E-16   1.25759761347863E-08   3.38307861892276E-16  -7.16707554772259E-09  -4.11284657162922E-17
      5.41054205998722E-09  -1.29539125314111E-17  -1.25776174614180E-08  -3.38527210523101E-17   7.16654411942831E-09
      4.68066335831532E-17
      1.00000000000000E+04
      8.00000000000000E-01   0.00000000000000E+00  -2.26771747599451E+01  -6.07681862033647E-13   3.09869730726403E-16
     -3.07010808121760E-16  -3.04463678676001E-16   1.25955440631924E-16  -5.40605205045191E-18  -7.08290968740591E-09
     -2.95435478173714E-16   1.63905471032370E-08   3.35039940073619E-16  -9.30613458842584E-09  -3.96044618987352E-17
      7.08290950626141E-09  -1.44342525527381E-17  -1.63890439687374E-08  -3.05762613964488E-17   9.30573619425226E-09
      4.50105139491319E-17
      1.00000000000000E+04
      8.00000000000000E-01   0.00000000000000E+00  -2.31771747599451E+01  -6.07681862033647E-13   3.09660457948968E-16
     -2.84168615611859E-16  -3.04517966777112E-16   1.09996992685702E-16  -5.14249117187739E-18  -8.85057741565119E-09
     -2.93827308522731E-16   2.03778516409708E-08   3.32073903020990E-16  -1.15257678552048E-08  -3.82465944985815E-17
      8.85057724157855E-09  -1.58331494262533E-17  -2.03763449867639E-08  -2.75559362442127E-17   1.15260537976577E-08
      4.33890856702422E-17
      1.00000000000000E+04
      8.00000000000000E-01   0.00000000000000E+00  -2.36771747599451E+01  -1.36728418957571E-12   3.09491651291436E-16
     -2.64234196021798E-16  -3.04596665440231E-16   9.68154326951968E-17  -4.89498585123764E-18  -1.06532351037241E-08
     -2.92387744455139E-16   2.43984267606509E-08   3.29487014512987E-16  -1.37447274755960E-08  -3.70992700571784E-17
      1.06532349362550E-08  -1.71039068363335E-17  -2.43979623150553E-08  -2.48903490720820E-17   1.37448521964080E-08
      4.19942559084961E-17
      1.00000000000000E+04
      8.00000000000000E-01   0.00000000000000E+00  -2.41771747599451E+01   0.00000000000000E+00   3.09352999887436E-16
     -2.45244807594755E-16  -3.04685750774147E-16   8.53136767761926E-17  -4.66724911333757E-18  -1.24492333079154E-08
     -2.91120631506999E-16   2.83579298531967E-08   3.27285698750158E-16  -1.59102073352507E-08  -3.61650672434119E-17
      1.24492331480616E-08  -1.82323683804938E-17  -2.83594403980389E-08  -2.25999479762487E-17   1.59103265117650E-08
      4.08323163560048E-17
      1.00000000000000E+04
      8.00000000000000E-01   0.00000000000000E+00  -2.46771747599451E+01  -1.51920465508412E-13   3.09237147594990E-16
     -2.26595308125216E-16  -3.04776911973096E-16   7.50823584661052E-17  -4.46023562192545E-18  -1.42133872698103E-08
     -2.90013140938579E-16   3.22041002784731E-08   3.25436717770383E-16  -1.79933338923280E-08  -3.54235768321358E-17
      1.42133871182855E-08  -1.92240066564501E-17  -3.22067209355613E-08  -2.06598057976046E-17   1.79934599348163E-08
      3.98838124525786E-17
      1.00000000000000E+04
      8.00000000000000E-01   0.00000000000000E+00  -2.51771747599451E+01  -1.51920465508412E-13   3.09138927526422E-16
     -2.08777045346425E-16  -3.04865690126180E-16   6.60440058622149E-17  -4.27323740029551E-18  -1.59324546675124E-08
     -2.89045540824920E-16   3.59133903643265E-08   3.23891205938356E-16  -1.99818775300061E-08  -3.48456651126740E-17
      1.59324545247367E-08  -2.00933867015566E-17  -3.59143319887036E-08  -1.90255158114141E-17   1.99816430669249E-08
      3.91189025127279E-17
      1.00000000000000E+04
      8.00000000000000E-01   0.00000000000000E+00  -2.56771747599451E+01  -3.03840931016824E-13   3.09054695288900E-16
     -1.92174301794788E-16  -3.04949986960575E-16   5.81770326696577E-17  -4.10470832840032E-18  -1.76008912038859E-08
     -2.88197008652934E-16   3.94751656781712E-08   3.22598649816969E-16  -2.18738104235681E-08  -3.44016411634773E-17
      1.76008910698334E-08  -2.08576866360432E-17  -3.94747014352335E-08  -1.76486628558333E-17   2.18736605443666E-08
      3.85063494914245E-17
      1.00000000000000E+04
      8.00000000000000E-01   0.00000000000000E+00  -2.61771747599451E+01   0.00000000000000E+00   3.08981836296533E-16
     -1.77271857776701E-16  -3.05029051348300E-16   5.14100043341659E-17  -3.95278494828608E-18  -1.92177073725050E-08
     -2.87448414030051E-16   4.28921607883864E-08   3.21513375895788E-16  -2.36727182770500E-08  -3.40649618651879E-17
      1.92177072466935E-08  -2.15334222665484E-17  -4.28904254723719E-08  -1.64843245469189E-17   2.36728546173828E-08
      3.80177468127373E-17
      1.00000000000000E+04