DF-ISE text

Info {
  version   = 1.0
  type      = xyplot
  datasets  = [
    "frequency"
    "v(Ntop)" "v(Ptop)" "v(Pbot)" "a(Ntop,Ntop)" "c(Ntop,Ntop)"
    "a(Ntop,Ptop)" "c(Ntop,Ptop)" "a(Ntop,Pbot)" "c(Ntop,Pbot)" "a(Ptop,Ntop)"
    "c(Ptop,Ntop)" "a(Ptop,Ptop)" "c(Ptop,Ptop)" "a(Ptop,Pbot)" "c(Ptop,Pbot)"
    "a(Pbot,Ntop)" "c(Pbot,Ntop)" "a(Pbot,Ptop)" "c(Pbot,Ptop)" "a(Pbot,Pbot)"
    "c(Pbot,Pbot)" ]
  functions = [
    Frequency
    Voltage Voltage Voltage Admittance Capacitance
    Admittance Capacitance Admittance Capacitance Admittance
    Capacitance Admittance Capacitance Admittance Capacitance
    Admittance Capacitance Admittance Capacitance Admittance
    Capacitance ]
}

Data {
      1.00000000000000E+04
      8.00000000000000E-01   0.00000000000000E+00  -5.00000000000000E-02  -1.51920465508412E-13   9.17525652516709E-16
     -8.92150332238970E-15  -8.12350810850544E-16  -2.87429772115937E-15  -1.05174841666415E-16  -8.92300061165527E-15
     -8.12350813242381E-16   4.55761396525235E-13   8.12370485937815E-16   1.67864182788192E-15  -1.96726952949266E-20
     -2.87274926082703E-15  -1.05174839274587E-16   1.67709347740086E-15  -1.96750871246396E-20  -6.07681862033647E-13
      1.05194514361574E-16
      1.00000000000000E+04
      8.00000000000000E-01   0.00000000000000E+00  -1.45555555555556E-01   3.03840931016824E-13   9.13369012550155E-16
     -8.85561969375215E-15  -8.12328412412252E-16  -2.69828367783982E-15  -1.01040600137893E-16  -8.85707417769006E-15
     -8.12328414863673E-16   1.06344325855888E-12   8.12355889157900E-16   1.61276105338232E-15  -2.74742945792291E-20
     -2.69688208696021E-15  -1.01040597686501E-16   1.61135729020996E-15  -2.74767459752062E-20  -1.51920465508412E-13
      1.01068074431652E-16
      1.00000000000000E+04
      8.00000000000000E-01   0.00000000000000E+00  -3.28172839506173E-01  -1.21536372406729E-12   9.06599725307069E-16
     -8.74944298283727E-15  -8.12260100825852E-16  -2.42431322344257E-15  -9.43396244811837E-17  -8.75038096214294E-15
     -8.12260103373628E-16   1.51920465508412E-13   8.12310568776567E-16   1.50606187570595E-15  -5.04654023319859E-20
     -2.42330739587687E-15  -9.43396219334348E-17   1.50505749796420E-15  -5.04679500858549E-20  -1.51920465508412E-13
      9.43900898835158E-17
      1.00000000000000E+04
      8.00000000000000E-01   0.00000000000000E+00  -6.77174759945130E-01  -1.06344325855888E-12   8.96472398282270E-16
     -8.59449377010733E-15  -8.11954290566228E-16  -2.05082761503408E-15  -8.45181077162269E-17  -8.59424712685636E-15
     -8.11954293259651E-16  -1.51920465508412E-12   8.12101449579938E-16   1.35003807331633E-15  -1.47156318899710E-19
     -2.05136487016937E-15  -8.45181050227931E-17   1.35056651666223E-15  -1.47159012328359E-19   1.51920465508412E-13
      8.46652640348787E-17
      1.00000000000000E+04
      8.00000000000000E-01   0.00000000000000E+00  -1.17717475994513E+00  -4.55761396525235E-13   8.84812116527476E-16
     -8.43274082110822E-15  -8.10463475909335E-16  -1.69880074431778E-15  -7.43486406182710E-17  -8.42586242783349E-15
     -8.10463478791412E-16   0.00000000000000E+00   8.11037206442328E-16   1.18899786134317E-15  -5.73727649984839E-19
     -1.70579704465772E-15  -7.43486377362832E-17   1.19600799823709E-15  -5.73730531987798E-19   0.00000000000000E+00
      7.49223682685249E-17
      1.00000000000000E+04
      8.00000000000000E-01   0.00000000000000E+00  -1.67717475994513E+00  -3.03840931016824E-13   8.71976038758499E-16
     -8.26221707767118E-15  -8.05394468281160E-16  -1.44963418908746E-15  -6.65815704772951E-17  -8.23651869298271E-15
     -8.05394471443055E-16  -9.11522793050471E-13   8.07218330774358E-16   1.06321553185388E-15  -1.82385933096653E-18
     -1.47533663101050E-15  -6.65815673154169E-17   1.08891641834567E-15  -1.82386249284643E-18   3.03840931016824E-13
      6.84054298078779E-17
      1.00000000000000E+04
      8.00000000000000E-01   0.00000000000000E+00  -2.17717475994513E+00  -7.59602327542059E-13   8.50543417500127E-16
     -7.87511698438983E-15  -7.91138424132938E-16  -1.22568435412776E-15  -5.94049933673235E-17  -7.80830249442266E-15
     -7.91138427779461E-16  -3.03840931016824E-13   7.95870053032316E-16   9.30944496164011E-16  -4.73162525188223E-18
     -1.29265386187884E-15  -5.94049897208476E-17   9.97916518970179E-16  -4.73162889836375E-18   3.03840931016824E-13
      6.41366186190148E-17
      1.00000000000000E+04
      8.00000000000000E-01   0.00000000000000E+00  -2.67717475994513E+00  -4.55761396525235E-13   8.10921746762546E-16
     -6.91101115692359E-15  -7.59610844487939E-16  -9.71854051657561E-16  -5.13109022745844E-17  -6.77296993667684E-15
     -7.59610848855720E-16  -2.58264791364300E-12   7.69581595523414E-16   7.47425568455082E-16  -9.97074666733601E-18
     -1.11009148677735E-15  -5.13108979068892E-17   8.85672694442679E-16  -9.97075103504059E-18   3.03840931016824E-13
      6.12816489422768E-17
      1.00000000000000E+04
      8.00000000000000E-01   0.00000000000000E+00  -3.17717475994513E+00  -1.51920465508412E-13   7.54167062836748E-16
     -5.37274112324910E-15  -7.11489521973446E-16  -6.94055511833090E-16  -4.26775408634152E-17  -5.15680225184267E-15
     -7.11489526869752E-16  -1.21536372406729E-12   7.28198221870322E-16   5.29367457709345E-16  -1.67086949999952E-17
     -9.10004731513360E-16  -4.26775359671126E-17   7.45319480880596E-16  -1.67086998962980E-17  -1.51920465508412E-13
      5.93862358636367E-17
      1.00000000000000E+04
      8.00000000000000E-01   0.00000000000000E+00  -3.67717475994513E+00  -4.55761396525235E-13   7.00170964484081E-16
     -4.00406452734971E-15  -6.64560450640782E-16  -4.79110262196036E-16  -3.56105138434166E-17  -3.75753818542968E-15
     -6.64560455330096E-16   0.00000000000000E+00   6.87162850452861E-16   3.63169243873195E-16  -2.26023951213004E-17
     -7.25730360274852E-16  -3.56105091541157E-17   6.09786262733198E-16  -2.26023998106027E-17   1.51920465508412E-13
      5.82129089649257E-17
      1.00000000000000E+04
      8.00000000000000E-01   0.00000000000000E+00  -4.17717475994513E+00  -1.51920465508412E-13   6.61128627088513E-16
     -3.15834841034009E-15  -6.30275752574641E-16  -3.53858067434275E-16  -3.08528745139711E-17  -2.93891605751603E-15
     -6.30275756470456E-16  -3.03840931016824E-13   6.56941899150031E-16   2.71588107175480E-16  -2.66661426792335E-17
     -5.73449120405686E-16  -3.08528706181650E-17   4.91178029339175E-16  -2.66661465750404E-17   1.51920465508412E-13
      5.75190171930201E-17
      1.00000000000000E+04
      8.00000000000000E-01   0.00000000000000E+00  -4.67717475994513E+00   1.21536372406729E-12   6.33421850318786E-16
     -2.60704897027323E-15  -6.05829593725261E-16  -2.77675691532709E-16  -2.75922565936661E-17  -2.44892199498910E-15
     -6.05829596654099E-16  -1.67112512059253E-12   6.35309686806697E-16   2.18934506000938E-16  -2.94800901520634E-17
     -4.35845527829268E-16  -2.75922536648537E-17   3.77118908166230E-16  -2.94800930808778E-17  -1.51920465508412E-13
      5.70723467456497E-17
      1.00000000000000E+04
      8.00000000000000E-01   0.00000000000000E+00  -5.17717475994513E+00   6.07681862033647E-13   6.11609324711505E-16
     -2.20151721816232E-15  -5.86526135928364E-16  -2.25999139366485E-16  -2.50831887832722E-17  -2.10153028447115E-15
     -5.86526138110842E-16  -9.11522793050471E-13   6.18185595829674E-16   1.82965859459410E-16  -3.16594577181640E-17
     -3.26061662793692E-16  -2.50831866008147E-17   2.83044437574290E-16  -3.16594599006231E-17  -3.03840931016824E-13
      5.67426465011928E-17
      1.00000000000000E+04
      8.00000000000000E-01   0.00000000000000E+00  -5.67717475994513E+00   1.51920465508412E-13   5.92486940705541E-16
     -1.90467609255764E-15  -5.69554001260509E-16  -1.89866579946382E-16  -2.29329394450698E-17  -1.84119851362664E-15
     -5.69554003019906E-16   1.51920465508412E-13   6.03091846502952E-16   1.56503663441914E-16  -3.35378434823832E-17
     -2.53565995970539E-16  -2.29329376856845E-17   2.20202708139927E-16  -3.35378452417694E-17   1.51920465508412E-13
      5.64707829263246E-17
      1.00000000000000E+04
      8.00000000000000E-01   0.00000000000000E+00  -6.17717475994513E+00   3.03840931016824E-13   5.74210140867403E-16
     -1.67377988860377E-15  -5.53275049813377E-16  -1.62545451701580E-16  -2.09350910541198E-17  -1.62992814716444E-15
     -5.53275051349814E-16  -3.03840931016824E-13   5.88568747668126E-16   1.35237341009593E-16  -3.52936963182150E-17
     -2.06452195541380E-16  -2.09350895176906E-17   1.79149100532431E-16  -3.52936978546447E-17  -1.51920465508412E-13
      5.62287873717128E-17
      1.00000000000000E+04
      8.00000000000000E-01   0.00000000000000E+00  -6.67717475994513E+00   3.03840931016824E-13   5.55397543631691E-16
     -1.46956323715554E-15  -5.36443581806568E-16  -1.39182725308192E-16  -1.89539618252192E-17  -1.43660312350850E-15
     -5.36443583214584E-16  -1.21536372406729E-12   5.73490496151431E-16   1.16092605827633E-16  -3.70469129359185E-17
     -1.72253426444017E-16  -1.89539604172013E-17   1.49170203001864E-16  -3.70469143439361E-17  -1.51920465508412E-13
      5.60008747600040E-17
      1.00000000000000E+04
      8.00000000000000E-01   0.00000000000000E+00  -7.17717475994513E+00  -1.51920465508412E-13   5.34644138723585E-16
     -1.26174835487660E-15  -5.17773318332692E-16  -1.16451744589572E-16  -1.68708203909562E-17  -1.23495778012563E-15
     -5.17773319652720E-16  -1.67112512059253E-12   5.56678306545068E-16   9.67451733553021E-17  -3.89049868914067E-17
     -1.43555707596317E-16  -1.68708190709381E-17   1.23845269865534E-16  -3.89049882114257E-17  -1.51920465508412E-13
      5.57758072827957E-17
      1.00000000000000E+04
      8.00000000000000E-01   0.00000000000000E+00  -7.67717475994513E+00  -1.51920465508412E-13   5.10385728257555E-16
     -1.02338251833838E-15  -4.95814135753299E-16  -9.17727164865588E-17  -1.45715925043220E-17  -9.99224855496005E-16
     -4.95814136991224E-16  -3.03840931016824E-13   5.36787510861165E-16   7.51502311487074E-17  -4.09733738690424E-17
     -1.15991727726854E-16  -1.45715912664031E-17   9.93711326193267E-17  -4.09733751069616E-17   4.55761396525235E-13
      5.55449663728754E-17
      1.00000000000000E+04
      8.00000000000000E-01   0.00000000000000E+00  -8.17717475994513E+00  -6.07681862033647E-13   4.81647254110637E-16
     -7.37637335697434E-16  -4.69636542958712E-16  -6.40062850410937E-17  -1.20107111519977E-17  -7.14461019973306E-16
     -4.69636544083206E-16  -4.55761396525235E-13   5.12933125235251E-16   5.03923176943796E-17  -4.32965811512126E-17
     -8.73590590940370E-17  -1.20107100274985E-17   7.37454967795503E-17  -4.32965822757114E-17   3.03840931016824E-13
      5.53072923020471E-17
      1.00000000000000E+04
      8.00000000000000E-01   0.00000000000000E+00  -8.67717475994513E+00  -1.51920465508412E-13   4.50684665838072E-16
     -4.40282652275013E-16  -4.41273318836809E-16  -3.66382974123140E-17  -9.41134700130671E-18  -4.16936141385996E-16
     -4.41273319781819E-16  -7.59602327542059E-13   4.86945747121034E-16   2.56839971466062E-17  -4.56724273384475E-17
     -6.00454023723887E-17  -9.41134605630102E-18   4.91037207888410E-17  -4.56724282834533E-17   0.00000000000000E+00
      5.50837743387236E-17
      1.00000000000000E+04
      8.00000000000000E-01   0.00000000000000E+00  -9.17717475994513E+00  -6.07681862033647E-13   4.24498436205727E-16
     -2.22825563604488E-16  -4.17167730122170E-16  -1.74419874318263E-17  -7.33070608361840E-18  -1.99732415598418E-16
     -4.17167730835235E-16  -2.73456837915141E-12   4.64754623347916E-16   7.95031139126932E-18  -4.75868925114126E-17
     -4.07464980740810E-17  -7.33070537055541E-18   3.12523860354698E-17  -4.75868932244758E-17   1.51920465508412E-13
      5.49175985942226E-17
      1.00000000000000E+04
      8.00000000000000E-01   0.00000000000000E+00  -9.67717475994513E+00  -1.21536372406729E-12   4.08114086225495E-16
     -1.19183467569988E-16  -4.02017279919134E-16  -8.39005689897501E-18  -6.09680630643428E-18  -9.80048708722135E-17
     -4.02017280411435E-16   1.51920465508412E-13   4.50747967067759E-16  -1.99204581468860E-18  -4.87306866562476E-17
     -2.96883850590439E-17  -6.09680581413378E-18   1.93104260734470E-17  -4.87306871485480E-17  -3.03840931016824E-13
      5.48274929632085E-17
      1.00000000000000E+04
      8.00000000000000E-01   0.00000000000000E+00  -1.01771747599451E+01  -6.07681862033647E-13   3.99723035590793E-16
     -8.11107128099186E-17  -3.94223665025832E-16  -4.89139701152263E-18  -5.49937056502499E-18  -6.59151590001102E-17
     -3.94223665345068E-16  -4.55761396525235E-13   4.43514567072742E-16  -1.25986245152560E-17  -4.92909017276456E-17
     -2.01107184672936E-17  -5.49937024578993E-18   2.62239082102114E-18  -4.92909020468805E-17  -1.51920465508412E-13
      5.47902722924964E-17
      1.00000000000000E+04
      8.00000000000000E-01   0.00000000000000E+00  -1.06771747599451E+01   6.07681862033647E-13   3.95578426087759E-16
     -6.59568292739420E-17  -3.90357976448167E-16  -3.32075399517933E-18  -5.22044963966988E-18  -6.82970074335408E-17
     -3.90357976619207E-16   1.21536372406729E-12   4.39915980263279E-16  -4.25448822515824E-17  -4.95580036434126E-17
     -1.05304230567410E-18  -5.22044946863072E-18  -4.48055662313403E-17  -4.95580038144517E-17  -3.03840931016824E-13
      5.47784532822183E-17
      1.00000000000000E+04
      8.00000000000000E-01   0.00000000000000E+00  -1.11771747599451E+01  -9.11522793050471E-13   3.93348497767761E-16
     -5.66348017713356E-17  -3.88271765060635E-16  -2.30086104712599E-18  -5.07673270719090E-18  -1.14141060117289E-16
     -3.88271765027504E-16  -2.88648884465982E-12   4.37972349005053E-16  -1.46719635721211E-16  -4.97005839775605E-17
      5.50460096129763E-17  -5.07673274032187E-18  -2.04067637195975E-16  -4.97005839444296E-17  -3.03840931016824E-13
      5.47773166839488E-17
      1.00000000000000E+04
      8.00000000000000E-01   0.00000000000000E+00  -1.16771747599451E+01  -3.03840931016824E-13   3.91969654870152E-16
     -4.83294077752658E-17  -3.86980659542257E-16  -1.45584675208808E-18  -4.98899532795891E-18  -2.86654562800019E-16
     -3.86980659029078E-16  -3.19032977567665E-12   4.36772490900982E-16  -5.05968885887081E-16  -4.97918318719513E-17
      2.36756805364437E-16  -4.98899584113832E-18  -7.44186895538708E-16  -4.97918313587719E-17  -3.03840931016824E-13
      5.47808271993651E-17
      1.00000000000000E+04
      8.00000000000000E-01   0.00000000000000E+00  -1.21771747599451E+01   1.51920465508412E-13   3.90993429137193E-16
     -4.04116796876786E-17  -3.86067938700835E-16  -7.42779213949255E-19  -4.92549043642756E-18  -8.71789364026820E-16
     -3.86067936774839E-16  -1.36728418957571E-12   4.35929139473035E-16  -1.70605057909307E-15  -4.98612026982718E-17
      8.30509752755149E-16  -4.92549236242315E-18  -2.53731793596126E-15  -4.98612007722763E-17  -1.51920465508412E-13
      5.47866931347103E-17
      1.00000000000000E+04
      8.00000000000000E-01   0.00000000000000E+00  -1.26771747599451E+01  -7.59602327542059E-13   3.90227775612691E-16
     -3.36326613976029E-17  -3.85354453339113E-16  -1.83598421642839E-19  -4.87332227364233E-18  -2.76596606048820E-15
     -3.85354447095485E-16  -2.73456837915141E-12   4.35275172891114E-16  -5.57821121755475E-15  -4.99207257955437E-17
      2.73191382633268E-15  -4.87332851727046E-18  -8.31031377749018E-15  -4.99207195519155E-17   3.03840931016824E-13
      5.47940480689124E-17
      1.00000000000000E+04
      8.00000000000000E-01   0.00000000000000E+00  -1.31771747599451E+01   0.00000000000000E+00   3.89585560653644E-16
     -2.88976489707135E-17  -3.84758611056226E-16   2.39984669161479E-19  -4.82694959747269E-18  -8.66407707404099E-15
     -3.84758591839455E-16  -7.59602327542059E-13   4.34734202090932E-16  -1.76346174283877E-14  -4.99756102504032E-17
      8.63540989513185E-15  -4.82696881424426E-18  -2.62697773094515E-14  -4.99755910336316E-17   3.03840931016824E-13
      5.48025598473733E-17
      1.00000000000000E+04
      8.00000000000000E-01   0.00000000000000E+00  -1.36771747599451E+01   0.00000000000000E+00   3.89024023349559E-16
     -2.54497769836987E-17  -3.84240236455094E-16   5.92612958039455E-19  -4.78378689449777E-18  -2.63638637271339E-14
     -3.84240179433393E-16   1.06344325855888E-12   4.34268486896042E-16  -5.38353108916177E-14  -5.00283074606992E-17
      2.63389348415595E-14  -4.78384391619958E-18  -8.01736254216539E-14  -5.00282504389974E-17   3.03840931016824E-13
      5.48120943545847E-17
      1.00000000000000E+04
      8.00000000000000E-01   0.00000000000000E+00  -1.41771747599451E+01  -1.51920465508412E-13   3.88520280454642E-16
     -2.32329451106400E-17  -3.83777783858784E-16   9.68573571789898E-19  -4.74249659588124E-18  -7.75624922966177E-14
     -3.83777620395482E-16   5.16529582728600E-12   4.33857689434213E-16  -1.58589714688336E-13  -5.00800690377597E-17
      7.75400665843501E-14  -4.74266005918287E-18  -2.36128814377230E-13  -5.00799055744581E-17   3.03840931016824E-13
      5.48225656331218E-17
      1.00000000000000E+04
      8.00000000000000E-01   0.00000000000000E+00  -1.46771747599451E+01  -4.55761396525235E-13   3.88061004466923E-16
     -2.22520501573221E-17  -3.83358709276918E-16   1.51373012767683E-18  -4.70229519005060E-18  -2.20242658518158E-13
     -3.83358256709473E-16   4.86145489626918E-12   4.33489777475313E-16  -4.50518226585828E-13  -5.01315207648179E-17
      2.20221813699177E-13  -4.70274775749524E-18  -6.70738535696008E-13  -5.01310681973733E-17  -1.51920465508412E-13
      5.48338159552215E-17
      1.00000000000000E+04
      8.00000000000000E-01   0.00000000000000E+00  -1.51771747599451E+01   1.51920465508412E-13   3.87637834027210E-16
     -2.23349758543050E-17  -3.82975186379639E-16   2.50034539191544E-18  -4.66264764761767E-18  -6.03017124674533E-13
     -3.82973977188756E-16   4.70953443076077E-12   4.33156750852285E-16  -1.23335112551606E-12  -5.01827736614109E-17
      6.02997106880407E-13  -4.66385683850087E-18  -1.83634570717325E-12  -5.01815644705276E-17   7.59602327542059E-13
      5.48454213090392E-17
      1.00000000000000E+04
      8.00000000000000E-01   0.00000000000000E+00  -1.56771747599451E+01  -3.03840931016824E-13   3.87245211191095E-16
     -2.45988493524712E-17  -3.82622103020733E-16   4.48355572973363E-18  -4.62310817039934E-18  -1.59058753741177E-12
     -3.82618988053403E-16   7.44410280991218E-12   4.32852165461197E-16  -3.25130129222611E-12  -5.02331774072412E-17
      1.59056750333186E-12  -4.62622313772960E-18  -4.84186432062902E-12  -5.02300624399110E-17   3.03840931016824E-12
      5.48562855780460E-17
      1.00000000000000E+04
      8.00000000000000E-01   0.00000000000000E+00  -1.61771747599451E+01   3.03840931016824E-13   3.86879310475687E-16
     -3.00393575108716E-17  -3.82296107856400E-16   8.62995757615245E-18  -4.58320261931993E-18  -4.03794796107228E-12
     -3.82288379621254E-16   1.26093986371982E-11   4.32568965459894E-16  -8.24522575981224E-12  -5.02805858389640E-17
      4.03792656789415E-12  -4.59093085446717E-18  -1.22831437061434E-11  -5.02728576038169E-17   8.20370513745424E-12
      5.48637884589563E-17
      1.00000000000000E+04
      8.00000000000000E-01   0.00000000000000E+00  -1.66771747599451E+01  -6.07681862033647E-13   3.86537503466190E-16
     -4.21712331373288E-17  -3.81995209155095E-16   1.72541993874414E-17  -4.54229431112185E-18  -9.85386406897258E-12
     -3.81976768946555E-16   3.09917749637160E-11   4.32296566702529E-16  -2.00898102905066E-11  -5.03197977549201E-17
      9.85383886130239E-12  -4.56073451966042E-18  -2.99436319171398E-11  -5.03013575463816E-17   2.00535014471104E-11
      5.48620920657573E-17
      1.00000000000000E+04
      8.00000000000000E-01   0.00000000000000E+00  -1.71771747599451E+01  -1.51920465508412E-13   3.86218124199009E-16
     -6.79339249465452E-17  -3.81718735443918E-16   3.44571391255026E-17  -4.49938875513011E-18  -2.30771261991037E-11
     -3.81676499395675E-16   6.94276527373442E-11   4.32016144176688E-16  -4.69499497123511E-11  -5.03396447806782E-17
      2.30770926255427E-11  -4.54162480337197E-18  -7.00270078992916E-11  -5.02974087324364E-17   4.67915033765908E-11
      5.48390335353133E-17
      1.00000000000000E+04
      8.00000000000000E-01   0.00000000000000E+00  -1.76771747599451E+01  -1.51920465508412E-13   3.85920435710243E-16
     -1.15410013570343E-16  -3.81467591016370E-16   6.59730946400410E-17  -4.45284469392260E-18  -5.17478669332038E-11
     -3.81374980066305E-16   1.57237681801206E-10   4.31693160452898E-16  -1.04988818164531E-10  -5.03181803852340E-17
      5.17478173517136E-11  -4.54545564398779E-18  -1.56736569528773E-10  -5.02255694351687E-17   1.05128962131821E-10
      5.47710250790819E-17
      1.00000000000000E+04
      8.00000000000000E-01   0.00000000000000E+00  -1.81771747599451E+01  -1.51920465508412E-13   3.85644740175763E-16
     -1.91754137495770E-16  -3.81244739689111E-16   1.15820122894549E-16  -4.40000048669212E-18  -1.10749459433210E-10
     -3.81051084923231E-16   3.37567274359691E-10   4.31267145774974E-16  -2.23893413497183E-10  -5.02160608513453E-17
      1.10749383502846E-10  -4.59365525257279E-18  -3.34642681192630E-10  -5.00224060854645E-17   2.24386527555924E-10
      5.46160613377158E-17
      1.00000000000000E+04
      8.00000000000000E-01   0.00000000000000E+00  -1.86771747599451E+01  -6.07681862033647E-13   3.85392542573946E-16
     -2.88604801611321E-16  -3.81055703008698E-16   1.78038652601839E-16  -4.33683956528937E-18  -2.25226202542670E-10
     -3.80671594870511E-16   6.79844083150143E-10   4.30641990638415E-16  -4.53252139275563E-10  -4.99703957674571E-17
      2.25226091629886E-10  -4.72094770347513E-18  -6.78478052888378E-10  -4.95862876292710E-17   4.53634510008118E-10
      5.43072353335971E-17
      1.00000000000000E+04
      8.00000000000000E-01   0.00000000000000E+00  -1.91771747599451E+01  -4.55761396525235E-13   3.85166570542093E-16
     -3.77194805814645E-16  -3.80908542332435E-16   2.31821806243049E-16  -4.25802820971326E-18  -4.32811063672871E-10
     -3.80190836376676E-16   1.29740077544184E-09   4.29686529938228E-16  -8.66000331946280E-10  -4.94956935618367E-17
      4.32810918085625E-10  -4.97573416547129E-18  -1.29881101821578E-09  -4.87779876060783E-17   8.66250494328964E-10
      5.37537217716699E-17
      1.00000000000000E+04
      8.00000000000000E-01   0.00000000000000E+00  -1.96771747599451E+01  -1.06344325855888E-12   3.84970332273370E-16
     -4.24431512887673E-16  -3.80812490844776E-16   2.55378448682619E-16  -4.15784142866967E-18  -7.81070011064610E-10
     -3.79558855963036E-16   2.33380219114022E-09   4.28261342534815E-16  -1.55163663291525E-09  -4.87024865717278E-17
      7.81069842072719E-10  -5.41147631041139E-18  -2.33270621964544E-09  -4.74488516899846E-17   1.55171563470292E-09
      5.28603280002323E-17
      1.00000000000000E+04
      8.00000000000000E-01   0.00000000000000E+00  -2.01771747599451E+01   9.11522793050471E-13   3.84806974661842E-16
     -4.23461088969598E-16  -3.80774726518670E-16   2.45968288623527E-16  -4.03224814327990E-18  -1.31659248684434E-09
     -3.78741250717104E-16   3.90997702078999E-09   4.26279826535573E-16  -2.59263652922415E-09  -4.75385758181041E-17
      1.31659230931884E-09  -6.06572394484407E-18  -3.90922859255970E-09  -4.55051000165429E-17   2.59267466436656E-09
      5.15708239615184E-17
      1.00000000000000E+04
      8.00000000000000E-01   0.00000000000000E+00  -2.06771747599451E+01   7.59602327542059E-13   3.84677720676875E-16
     -3.93497373369353E-16  -3.80796316554463E-16   2.17770872199569E-16  -3.88140412250088E-18  -2.06744397887244E-09
     -3.77742787642734E-16   6.09884708783519E-09   4.23777428489411E-16  -4.02909261851203E-09  -4.60346408462774E-17
      2.06744380295196E-09  -6.93493303422836E-18  -6.09653620367894E-09  -4.29811119345528E-17   4.02938650667961E-09
      4.99160449697937E-17
      1.00000000000000E+04
      8.00000000000000E-01   0.00000000000000E+00  -2.11771747599451E+01   0.00000000000000E+00   3.84580823738223E-16
     -3.56226421616303E-16  -3.80870086874842E-16   1.85704846879694E-16  -3.71073686345664E-18  -3.02921347553836E-09
     -3.76615516692108E-16   8.86531876474337E-09   4.20929943663386E-16  -5.83361216315598E-09  -4.43144269706156E-17
      3.02921330511406E-09  -7.96530704618998E-18  -8.86282528255698E-09  -4.00598567878856E-17   5.83359395505750E-09
      4.80251638333495E-17
      1.00000000000000E+04
      8.00000000000000E-01   0.00000000000000E+00  -2.16771747599451E+01   0.00000000000000E+00   3.84511860076142E-16
     -3.20179397344082E-16  -3.80982438329182E-16   1.56653870488706E-16  -3.52942174706253E-18  -4.16568819753781E-09
     -3.75440216499650E-16   1.20839057470046E-08   4.17990585979184E-16  -7.91783343867689E-09  -4.25503694788697E-17
      4.16568803389793E-09  -9.07164357658985E-18  -1.20835213158935E-08  -3.70081476493509E-17   7.91779082136741E-09
      4.60797912257746E-17
      1.00000000000000E+04
      8.00000000000000E-01   0.00000000000000E+00  -2.21771747599451E+01  -1.51920465508412E-13   3.84465114266008E-16
     -2.86676202834635E-16  -3.81117864941607E-16   1.31599294118784E-16  -3.34724932446815E-18  -5.42349745059202E-09
     -3.74294765177539E-16   1.55908377728008E-08   4.15191930108632E-16  -1.01661194328202E-08  -4.08971649314888E-17
      5.42349729515969E-09  -1.01703490885403E-17  -1.55896165964272E-08  -3.40740651674069E-17   1.01657579494954E-08
      4.42444142552832E-17
      1.00000000000000E+04
      8.00000000000000E-01   0.00000000000000E+00  -2.26771747599451E+01  -1.51920465508412E-13   3.84435042478430E-16
     -2.55748263935392E-16  -3.81263020120697E-16   1.10114305139254E-16  -3.17202235780332E-18  -6.74940371332140E-09
     -3.73232395882335E-16   1.92206734551932E-08   4.12683195708569E-16  -1.24713084141082E-08  -3.94507998262046E-17
      6.74940356755827E-09  -1.12026465961658E-17  -1.92207118715665E-08  -3.14201755878393E-17   1.24714548545165E-08
      4.26228221832524E-17
      1.00000000000000E+04
      8.00000000000000E-01   0.00000000000000E+00  -2.31771747599451E+01   3.03840931016824E-13   3.84417102529741E-16
     -2.27317333417011E-16  -3.81408517401488E-16   9.19814633379236E-17  -3.00858512834264E-18  -8.10088877505087E-09
     -3.72277973007913E-16   2.28540033082924E-08   4.10524255550083E-16  -1.47541138338285E-08  -3.82462825415706E-17
      8.10088863965251E-09  -1.21391295219159E-17  -2.28550023814942E-08  -2.91157381480034E-17   1.47539079283149E-08
      4.12548676694544E-17
      1.00000000000000E+04
      8.00000000000000E-01   0.00000000000000E+00  -2.36771747599451E+01  -1.51920465508412E-13   3.84407930269110E-16
     -2.02341252520863E-16  -3.81548786820155E-16   7.70193615798595E-17  -2.85914344908961E-18  -9.44882407799132E-09
     -3.71435299780006E-16   2.64121325309649E-08   4.08711939883647E-16  -1.69656207900338E-08  -3.72766401027637E-17
      9.44882395271866E-09  -1.29726304892426E-17  -2.64144446657532E-08  -2.71631530626134E-17   1.69660218265829E-08
      4.01357835515501E-17
      1.00000000000000E+04
      8.00000000000000E-01   0.00000000000000E+00  -2.41771747599451E+01   6.07681862033647E-13   3.84405164918806E-16
     -1.80881220339296E-16  -3.81681087826097E-16   6.48754793483726E-17  -2.72407709281421E-18  -1.07755567532622E-08
     -3.70696441473625E-16   2.98572329272992E-08   4.07210317625695E-16  -1.90810192633193E-08  -3.65138761515712E-17
      1.07755566373119E-08  -1.37087234452890E-17  -2.98565758357681E-08  -2.55292297990978E-17   1.90809066269255E-08
      3.92379532443313E-17
      1.00000000000000E+04
      8.00000000000000E-01   0.00000000000000E+00  -2.46771747599451E+01  -1.51920465508412E-13   3.84407183015218E-16
     -1.62669250320492E-16  -3.81804469983690E-16   5.50794588613011E-17  -2.60271303163228E-18  -1.20716558182616E-08
     -3.70048680998288E-16   3.31628703362967E-08   4.05972192548005E-16  -2.10915583913211E-08  -3.59235115503706E-17
      1.20716557106294E-08  -1.43585020170433E-17  -3.31632140469297E-08  -2.41677225649391E-17   2.10912701469983E-08
      3.85262245816189E-17
      1.00000000000000E+04
      8.00000000000000E-01   0.00000000000000E+00  -2.51771747599451E+01   0.00000000000000E+00   3.84412864237998E-16
     -1.47327463016665E-16  -3.81918987245321E-16   4.71608285984027E-17  -2.49387699279048E-18  -1.33329800056765E-08
     -3.69478519730289E-16   3.63316274058712E-08   4.04950844494224E-16  -2.29979335152943E-08  -3.54723247636488E-17
      1.33329799053501E-08  -1.49343445078247E-17  -3.63309133735034E-08  -2.30318572486106E-17   2.29977200686634E-08
      3.79662017565546E-17
      1.00000000000000E+04
      8.00000000000000E-01   0.00000000000000E+00  -2.56771747599451E+01   3.03840931016824E-13   3.84421420459171E-16
     -1.34691985050160E-16  -3.82025191417821E-16   4.07133989186645E-17  -2.39622904144692E-18  -1.45585406811303E-08
     -3.68973549042152E-16   3.93653271816086E-08   4.04105072826685E-16  -2.48057735051272E-08  -3.51315237845053E-17
      1.45585405872585E-08  -1.54478714171178E-17  -3.93643140516803E-08  -2.20798814088332E-17   2.48058774491445E-08
      3.75277528253049E-17
      1.00000000000000E+04
      8.00000000000000E-01   0.00000000000000E+00  -2.61771747599451E+01   9.11522793050471E-13   3.84432281268200E-16
     -1.23476967277954E-16  -3.82123836462358E-16   3.54167717066311E-17  -2.30844480594820E-18  -1.57491026201805E-08
     -3.68523104262370E-16   4.22727810505086E-08   4.03400573355250E-16  -2.65228752629143E-08  -3.48774690925929E-17
      1.57491025320090E-08  -1.59091770059316E-17  -4.22719777594897E-08  -2.12767368926172E-17   2.65228825503206E-08
      3.71859138979862E-17
      1.00000000000000E+04