DF-ISE text

Info {
  version   = 1.0
  type      = xyplot
  datasets  = [
    "frequency"
    "v(Ntop)" "v(Ptop)" "v(Pbot)" "a(Ntop,Ntop)" "c(Ntop,Ntop)"
    "a(Ntop,Ptop)" "c(Ntop,Ptop)" "a(Ntop,Pbot)" "c(Ntop,Pbot)" "a(Ptop,Ntop)"
    "c(Ptop,Ntop)" "a(Ptop,Ptop)" "c(Ptop,Ptop)" "a(Ptop,Pbot)" "c(Ptop,Pbot)"
    "a(Pbot,Ntop)" "c(Pbot,Ntop)" "a(Pbot,Ptop)" "c(Pbot,Ptop)" "a(Pbot,Pbot)"
    "c(Pbot,Pbot)" ]
  functions = [
    Frequency
    Voltage Voltage Voltage Admittance Capacitance
    Admittance Capacitance Admittance Capacitance Admittance
    Capacitance Admittance Capacitance Admittance Capacitance
    Admittance Capacitance Admittance Capacitance Admittance
    Capacitance ]
}

Data {
      1.00000000000000E+04
      8.00000000000000E-01   0.00000000000000E+00  -5.00000000000000E-02   0.00000000000000E+00   7.05141670652594E-16
     -1.28361453539930E-15  -5.99956345945179E-16  -1.14567535152284E-15  -1.05185324707456E-16  -1.28499759555285E-15
     -5.99956346078462E-16  -3.03840931016824E-13   5.99969111054043E-16   2.71357632131000E-16  -1.27649755207081E-20
     -1.14428639245909E-15  -1.05185324574184E-16   2.69972013846933E-16  -1.27651087971913E-20   4.55761396525235E-13
      1.05198089682691E-16
      1.00000000000000E+04
      8.00000000000000E-01   0.00000000000000E+00  -1.45555555555556E-01   4.55761396525235E-13   7.00997700329218E-16
     -1.27329665291019E-15  -5.99942635395133E-16  -1.04970669388758E-15  -1.01055064934076E-16  -1.27454808297463E-15
     -5.99942635551680E-16   0.00000000000000E+00   5.99960462403057E-16   2.60781752165537E-16  -1.78268506887592E-20
     -1.04843993372746E-15  -1.01055064777546E-16   2.59518475783955E-16  -1.78270072243944E-20   0.00000000000000E+00
      1.01072891784261E-16
      1.00000000000000E+04
      8.00000000000000E-01   0.00000000000000E+00  -3.28172839506173E-01  -4.55761396525235E-13   6.94266566748076E-16
     -1.25710746878601E-15  -5.99900896843453E-16  -9.03335545588569E-16  -9.43656699046610E-17  -1.25805570528265E-15
     -5.99900897038523E-16   0.00000000000000E+00   5.99933629105514E-16   2.43709906951609E-16  -3.27320667436648E-20
     -9.02391364840519E-16  -9.43656697095898E-17   2.42761250822326E-16  -3.27322618116508E-20  -1.51920465508412E-13
      9.43984019708600E-17
      1.00000000000000E+04
      8.00000000000000E-01   0.00000000000000E+00  -6.77174759945130E-01  -6.07681862033647E-13   6.84306737115605E-16
     -1.23641658190104E-15  -5.99714901557439E-16  -7.12020465669722E-16  -8.45918355582025E-17  -1.23623987255224E-15
     -5.99714901812007E-16  -2.12688651711777E-12   5.99810143002489E-16   2.19028298348348E-16  -9.52411912172551E-20
     -7.12165574137201E-16  -8.45918353036428E-17   2.19173778252114E-16  -9.52414457780000E-20  -3.03840931016824E-13
      8.46870767490943E-17
      1.00000000000000E+04
      8.00000000000000E-01   0.00000000000000E+00  -1.17717475994513E+00   0.00000000000000E+00   6.73446992848777E-16
     -1.22774707388730E-15  -5.98819906474211E-16  -5.42743838795178E-16  -7.46270863746190E-17  -1.22333885641367E-15
     -5.98819906810639E-16  -1.67112512059253E-12   5.99188079751435E-16   1.94521062643175E-16  -3.68172941472116E-19
     -5.47140570419938E-16  -7.46270860382008E-17   1.98924113950006E-16  -3.68173277892985E-19  -1.51920465508412E-13
      7.49952593162066E-17
      1.00000000000000E+04
      8.00000000000000E-01   0.00000000000000E+00  -1.67717475994513E+00   4.55761396525235E-13   6.63313445473593E-16
     -1.24379825761275E-15  -5.95865331597422E-16  -4.32195970993825E-16  -6.74481138762137E-17  -1.22776551061750E-15
     -5.95865332064594E-16  -1.36728418957571E-12   5.97012848287895E-16   1.77079124902129E-16  -1.14751622405750E-18
     -4.48201418695965E-16  -6.74481134090517E-17   1.93088986503505E-16  -1.14751669122118E-18  -1.51920465508412E-13
      6.85956301010228E-17
      1.00000000000000E+04
      8.00000000000000E-01   0.00000000000000E+00  -2.17717475994513E+00  -1.51920465508412E-13   6.49581521034585E-16
     -1.26117389154866E-15  -5.87932727665428E-16  -3.47480945403655E-16  -6.16487933691983E-17  -1.22126391805268E-15
     -5.87932728360305E-16  -1.82304558610094E-12   5.90817956539351E-16   1.60182048267217E-16  -2.88522817929529E-18
     -3.87404321203741E-16  -6.16487926743216E-17   2.00100928988830E-16  -2.88522887417210E-18   0.00000000000000E+00
      6.45340215487575E-17
      1.00000000000000E+04
      8.00000000000000E-01   0.00000000000000E+00  -2.67717475994513E+00  -1.51920465508412E-13   6.26999154147126E-16
     -1.21486500834969E-15  -5.70963176529088E-16  -2.78068259804212E-16  -5.60359776180804E-17  -1.13567107804820E-15
     -5.70963177561369E-16  -2.88648884465982E-12   5.76879287885441E-16   1.35609065288895E-16  -5.91611032423803E-18
     -3.57246101079863E-16  -5.60359765858088E-17   2.14793174398392E-16  -5.91611135651054E-18   4.55761396525235E-13
      6.19520879422783E-17
      1.00000000000000E+04
      8.00000000000000E-01   0.00000000000000E+00  -3.17717475994513E+00  -3.03840931016824E-13   5.94052500064507E-16
     -1.05141879571811E-15  -5.43737115771962E-16  -2.10495357816132E-16  -5.03153842925648E-17  -9.26337093402566E-16
     -5.43737117123885E-16  -1.36728418957571E-12   5.53717001440248E-16   1.01563985401031E-16  -9.97988431498286E-18
     -3.35577909766787E-16  -5.03153829406459E-17   2.26644954141011E-16  -9.97988566690223E-18   1.51920465508412E-13
      6.02952686068602E-17
      1.00000000000000E+04
      8.00000000000000E-01   0.00000000000000E+00  -3.67717475994513E+00   3.03840931016824E-13   5.57742409708427E-16
     -8.31844513473252E-16  -5.12622688406414E-16  -1.48443788822240E-16  -4.51197213020418E-17  -6.77655323090333E-16
     -5.12622689870325E-16   1.06344325855888E-12   5.26720045529192E-16   6.88025033008710E-17  -1.40973556582317E-17
     -3.02644256349491E-16  -4.51197198381371E-17   2.23006766681431E-16  -1.40973571221367E-17   1.51920465508412E-13
      5.92170769600896E-17
      1.00000000000000E+04
      8.00000000000000E-01   0.00000000000000E+00  -4.17717475994513E+00   6.07681862033647E-13   5.27044619797790E-16
     -6.67184625212611E-16  -4.85934231001523E-16  -1.06999931718345E-16  -4.11103887962978E-17  -5.07797106326952E-16
     -4.85934232355255E-16  -1.51920465508412E-13   5.03340964342708E-16   4.80853551205259E-17  -1.74067319879982E-17
     -2.66395018495602E-16  -4.11103874425680E-17   2.07485945200801E-16  -1.74067333417280E-17   0.00000000000000E+00
      5.85171207839436E-17
      1.00000000000000E+04
      8.00000000000000E-01   0.00000000000000E+00  -4.67717475994513E+00   1.51920465508412E-13   5.03921787575697E-16
     -5.54928416741531E-16  -4.65718502420098E-16  -8.05583873255511E-17  -3.82032851556234E-17  -4.14891042508093E-16
     -4.65718503499802E-16  -1.51920465508412E-12   4.85562032189165E-16   3.70390794106793E-17  -1.98435286891879E-17
     -2.20605971344638E-16  -3.82032840759213E-17   1.77082650071927E-16  -1.98435297688900E-17   1.51920465508412E-13
      5.80468138450691E-17
      1.00000000000000E+04
      8.00000000000000E-01   0.00000000000000E+00  -5.17717475994513E+00  -6.07681862033647E-13   4.86215877772519E-16
     -4.51971860761010E-16  -4.50208836325530E-16  -6.15005233902577E-17  -3.60070414470543E-17  -3.46174867913745E-16
     -4.50208837074460E-16  -1.36728418957571E-12   4.71905587514039E-16   2.94445874891311E-17  -2.16967504393662E-17
     -1.67286373548027E-16  -3.60070406981260E-17   1.35230702050956E-16  -2.16967511882946E-17   1.51920465508412E-13
      5.77037918860890E-17
      1.00000000000000E+04
      8.00000000000000E-01   0.00000000000000E+00  -5.67717475994513E+00  -3.03840931016824E-13   4.71817768359273E-16
     -3.59452066667020E-16  -4.37589962489384E-16  -4.73878654944629E-17  -3.42278058699470E-17  -2.86726328518923E-16
     -4.37589962969789E-16  -7.59602327542059E-13   4.60793761652304E-16   2.33651903729343E-17  -2.32037986822464E-17
     -1.20125951442480E-16  -3.42278053895419E-17   9.61037305462634E-17  -2.32037991626515E-17   1.51920465508412E-13
      5.74316045513369E-17
      1.00000000000000E+04
      8.00000000000000E-01   0.00000000000000E+00  -6.17717475994513E+00   0.00000000000000E+00   4.59458420275855E-16
     -2.92756907340482E-16  -4.26757403086422E-16  -3.79117703779178E-17  -3.27010171894881E-17  -2.42657817974183E-16
     -4.26757403402655E-16  -2.43072744813459E-12   4.51258050551640E-16   1.89956869884054E-17  -2.45006471485825E-17
     -8.80087185831019E-17  -3.27010168732565E-17   6.90891331657334E-17  -2.45006474648141E-17  -4.55761396525235E-13
      5.72016643375850E-17
      1.00000000000000E+04
      8.00000000000000E-01   0.00000000000000E+00  -6.67717475994513E+00  -1.51920465508412E-13   4.48434421045782E-16
     -2.47997301436585E-16  -4.17096177452993E-16  -3.16188191166647E-17  -3.13382435928130E-17  -2.11635269738332E-16
     -4.17096177676862E-16  -7.59602327542059E-13   4.42757176643189E-16   1.59203952266971E-17  -2.56609989665053E-17
     -6.79639920239734E-17  -3.13382433689464E-17   5.22682249186701E-17  -2.56609991903720E-17   6.07681862033647E-13
      5.69992425590625E-17
      1.00000000000000E+04
      8.00000000000000E-01   0.00000000000000E+00  -7.17717475994513E+00   9.11522793050471E-13   4.38342472178727E-16
     -2.16690593331006E-16  -4.08252585992981E-16  -2.71191113632038E-17  -3.00898861857338E-17  -1.88735348669655E-16
     -4.08252586162502E-16   1.51920465508412E-13   4.34979005086990E-16   1.36161544303482E-17  -2.67264189238913E-17
     -5.50560840504533E-17  -3.00898860162132E-17   4.15537699081596E-17  -2.67264190934118E-17  -1.51920465508412E-13
      5.68163051099150E-17
      1.00000000000000E+04
      8.00000000000000E-01   0.00000000000000E+00  -7.67717475994513E+00  -6.07681862033647E-13   4.28935377191534E-16
     -1.93293105480839E-16  -4.00009105111163E-16  -2.36122309213438E-17  -2.89262720804035E-17  -1.70735925970692E-16
     -4.00009105246100E-16   0.00000000000000E+00   4.27731011970704E-16   1.17643539522400E-17  -2.77219067230745E-17
     -4.61766541131370E-17  -2.89262719454679E-17   3.43317102686710E-17  -2.77219068580102E-17   3.03840931016824E-13
      5.66481788028971E-17
      1.00000000000000E+04
      8.00000000000000E-01   0.00000000000000E+00  -8.17717475994513E+00  -3.03840931016824E-13   4.20051264434376E-16
     -1.74868880584022E-16  -3.92222711450866E-16  -2.07151170556499E-17  -2.78285529835282E-17  -1.55869119557245E-16
     -3.92222711562151E-16  -7.59602327542059E-13   4.20886147323037E-16   1.01992768734115E-17  -2.86634357598200E-17
     -3.97123417777565E-17  -2.78285528722453E-17   2.91921647783382E-17  -2.86634358711029E-17   1.51920465508412E-13
      5.64919887431568E-17
      1.00000000000000E+04
      8.00000000000000E-01   0.00000000000000E+00  -8.67717475994513E+00  -7.59602327542059E-13   4.11578292023728E-16
     -1.59778494354896E-16  -3.84794101530438E-16  -1.82650169255184E-17  -2.67841904932931E-17  -1.43205488268460E-16
     -3.84794101624566E-16  -7.59602327542059E-13   4.14355800677977E-16   8.82629557022812E-18  -2.95616990518851E-17
     -3.48202738810372E-17  -2.67841903991647E-17   2.53700346499049E-17  -2.95616991460134E-17  -4.55761396525235E-13
      5.63458895453824E-17
      1.00000000000000E+04
      8.00000000000000E-01   0.00000000000000E+00  -9.17717475994513E+00  -1.51920465508412E-13   4.03435971988455E-16
     -1.47032675795927E-16  -3.77651414440878E-16  -1.61916233013050E-17  -2.57845575475636E-17  -1.32189127917508E-16
     -3.77651414521846E-16  -3.03840931016824E-13   4.08075514104838E-16   7.57598470197876E-18  -3.04240995816162E-17
     -3.10088675000809E-17  -2.57845574665951E-17   2.23836045807060E-17  -3.04240996625847E-17  -3.03840931016824E-13
      5.62086571286755E-17
      1.00000000000000E+04
      8.00000000000000E-01   0.00000000000000E+00  -9.67717475994513E+00   9.11522793050471E-13   3.95564526581859E-16
     -1.36010942293239E-16  -3.70740969843333E-16  -1.44349009894819E-17  -2.48235567385347E-17  -1.22653251521899E-16
     -3.70740969913196E-16   3.03840931016824E-13   4.01996866464271E-16   6.35156445292557E-18  -3.12558965504070E-17
     -2.77822173522344E-17  -2.48235566686722E-17   1.96860460819592E-17  -3.12558966202695E-17  -1.51920465508412E-13
      5.60794532891491E-17
      1.00000000000000E+04
      8.00000000000000E-01   0.00000000000000E+00  -1.01771747599451E+01   3.03840931016824E-13   3.87918432804546E-16
     -1.26175586065165E-16  -3.64021656835822E-16  -1.29124386927219E-17  -2.38967759687397E-17  -1.14868986706192E-16
     -3.64021656894077E-16  -1.21536372406729E-12   3.96082563776912E-16   4.89805191702805E-18  -3.20609068814338E-17
     -2.42262661610915E-17  -2.38967759104856E-17   1.61985803020799E-17  -3.20609069396880E-17  -3.03840931016824E-13
      5.59576828500878E-17
      1.00000000000000E+04
      8.00000000000000E-01   0.00000000000000E+00  -1.06771747599451E+01   3.03840931016824E-13   3.80462385288080E-16
     -1.17366792414612E-16  -3.57461421571858E-16  -1.16016824294482E-17  -2.30009637162300E-17  -1.10470982469825E-16
     -3.57461421613075E-16   9.11522793050471E-13   3.90303364825570E-16   2.40298426885001E-18  -3.28419432109225E-17
     -1.84985433491497E-17  -2.30009636750135E-17   9.30025567157179E-18  -3.28419432521391E-17   3.03840931016824E-13
      5.58429069267305E-17
      1.00000000000000E+04
      8.00000000000000E-01   0.00000000000000E+00  -1.11771747599451E+01  -4.55761396525235E-13   3.73168782990056E-16
     -1.09480842035336E-16  -3.51035074098043E-16  -1.04951497926119E-17  -2.21337088920206E-17  -1.14995185895817E-16
     -3.51035074102492E-16   1.36728418957571E-12   3.84636157180048E-16  -3.79568956709428E-18  -3.36010830763408E-17
     -4.95056798166450E-18  -2.21337088875733E-17  -9.33005487017795E-18  -3.36010830807882E-17  -3.03840931016824E-13
      5.57347919681539E-17
      1.00000000000000E+04
      8.00000000000000E-01   0.00000000000000E+00  -1.16771747599451E+01  -7.59602327542059E-13   3.66016220849812E-16
     -1.02279149095110E-16  -3.44722968811001E-16  -9.53733168785093E-18  -2.12932520388242E-17  -1.46356083609351E-16
     -3.44722968715212E-16  -2.43072744813459E-12   3.79062797584306E-16  -2.24424678497179E-17  -3.43398288693480E-17
      3.45616294766206E-17  -2.12932521346160E-17  -6.65262814501680E-17  -3.43398287735562E-17   4.55761396525235E-13
      5.56330809077158E-17
      1.00000000000000E+04
      8.00000000000000E-01   0.00000000000000E+00  -1.21771747599451E+01   0.00000000000000E+00   3.58988655075364E-16
     -9.56161675798785E-17  -3.38510277456948E-16  -8.69113309660186E-18  -2.04783776184173E-17  -2.60229876726112E-16
     -3.38510277066885E-16  -3.64609117220188E-12   3.73569476407811E-16  -8.19306711997104E-17  -3.50591993399422E-17
      1.55958568543926E-16  -2.04783780084818E-17  -2.46572547529641E-16  -3.50591989498777E-17  -1.51920465508412E-13
      5.55375769578336E-17
      1.00000000000000E+04
      8.00000000000000E-01   0.00000000000000E+00  -1.26771747599451E+01  -7.59602327542059E-13   3.52075025855812E-16
     -8.94083773420277E-17  -3.32386671785000E-16  -7.93193922645298E-18  -1.96883540708248E-17  -6.26001418956017E-16
     -3.32386670523117E-16  -1.82304558610094E-12   3.68146450464367E-16  -2.72302438659560E-16  -3.57597799416467E-17
      5.28655865909504E-16  -1.96883553327080E-17  -8.08874314262844E-16  -3.57597786797635E-17  -1.51920465508412E-13
      5.54481340119206E-17
      1.00000000000000E+04
      8.00000000000000E-01   0.00000000000000E+00  -1.31771747599451E+01   3.03840931016824E-13   3.45269194983079E-16
     -8.36829793078659E-17  -3.26346294402434E-16  -7.23841851321945E-18  -1.89229005806707E-17  -1.74587380035936E-15
     -3.26346290587083E-16  -1.51920465508412E-12   3.62788040151483E-16  -8.72611526116604E-16  -3.64417495641821E-17
      1.65496814620967E-15  -1.89229043960218E-17  -2.53481030065059E-15  -3.64417457488309E-17   1.51920465508412E-13
      5.53646501444985E-17
      1.00000000000000E+04
      8.00000000000000E-01   0.00000000000000E+00  -1.36771747599451E+01   4.55761396525235E-13   3.38570094599849E-16
     -7.83464354023088E-17  -3.20387927848874E-16  -6.58629018938457E-18  -1.81821667509950E-17  -5.07372788201650E-15
     -3.20387916692346E-16   1.51920465508412E-13   3.57492812021783E-16  -2.72667004476793E-15  -3.71048953293134E-17
      4.98878983855468E-15  -1.81821779075228E-17  -7.72206477223632E-15  -3.71048841727856E-17   4.55761396525235E-13
      5.52870620792733E-17
      1.00000000000000E+04
      8.00000000000000E-01   0.00000000000000E+00  -1.41771747599451E+01  -1.51920465508412E-13   3.31981992265191E-16
     -7.34537403321016E-17  -3.14515277820340E-16  -5.94970405520794E-18  -1.74667144448401E-17  -1.47092100456924E-14
     -3.14515246013853E-16   1.21536372406729E-12   3.52263870392358E-16  -8.31938772510039E-15  -3.77486243787812E-17
      1.46298178925218E-14  -1.74667462513287E-17  -2.29551455914971E-14  -3.77485925722926E-17   0.00000000000000E+00
      5.52153388244100E-17
      1.00000000000000E+04
      8.00000000000000E-01   0.00000000000000E+00  -1.46771747599451E+01  -6.07681862033647E-13   3.25514764804048E-16
     -6.89844541706029E-17  -3.08737273387832E-16  -5.30495403024230E-18  -1.67774914162466E-17  -4.18954849210071E-14
     -3.08737184867883E-16  -7.59602327542059E-13   3.47109165224507E-16  -2.47644020105911E-14  -3.83719803563939E-17
      4.18212174750102E-14  -1.67775799361982E-17  -6.65908846122913E-14  -3.83718918364422E-17  -4.55761396525235E-13
      5.51494717722408E-17
      1.00000000000000E+04
      8.00000000000000E-01   0.00000000000000E+00  -1.51771747599451E+01  -9.11522793050471E-13   3.19184049376955E-16
     -6.49574234276965E-17  -3.03068263882060E-16  -4.62191502020632E-18  -1.61157854949288E-17  -1.16569319392460E-13
     -3.03068023543982E-16   2.73456837915141E-12   3.42041693912302E-16  -7.18201533727456E-14  -3.89736703669820E-17
      1.16499722536179E-13  -1.61160258330073E-17  -1.88324511932287E-13  -3.89734300289036E-17   0.00000000000000E+00
      5.50894558620755E-17
      1.00000000000000E+04
      8.00000000000000E-01   0.00000000000000E+00  -1.56771747599451E+01   4.55761396525235E-13   3.13011118310139E-16
     -6.15387384778369E-17  -2.97527971134872E-16  -3.85047705236816E-18  -1.54831471752782E-17  -3.15983285974253E-13
     -2.97527335308325E-16   5.31721629279441E-12   3.37079437696345E-16  -2.02624219807138E-13  -3.95521023875073E-17
      3.15917900320468E-13  -1.54837830018259E-17  -5.18545956622705E-13  -3.95514665609594E-17   4.55761396525235E-13
      5.50352495627271E-17
      1.00000000000000E+04
      8.00000000000000E-01   0.00000000000000E+00  -1.61771747599451E+01  -4.55761396525235E-13   3.07022322176762E-16
     -5.89328098668647E-17  -2.92141053919570E-16  -2.88135340967284E-18  -1.48812682572334E-17  -8.32968018763237E-13
     -2.92139417122809E-16   3.03840931016824E-12   3.32244835386464E-16  -5.55236905303068E-13  -4.01054182634996E-17
      8.32906193907298E-13  -1.48829050539946E-17  -1.38814600046958E-12  -4.01037814667383E-17   6.07681862033647E-13
      5.49866865200854E-17
      1.00000000000000E+04
      8.00000000000000E-01   0.00000000000000E+00  -1.66771747599451E+01  -4.55761396525235E-13   3.01247983989433E-16
     -5.77038642393226E-17  -2.86936179176749E-16  -1.46949809754147E-18  -1.43118048127051E-17  -2.13210331139306E-12
     -2.86932085061204E-16   6.38065955135330E-12   3.27563560305292E-16  -1.47533449544475E-12  -4.06314752446959E-17
      2.13204412869556E-12  -1.43158989282507E-17  -3.60738009543280E-12  -4.06273811291504E-17   1.67112512059253E-12
      5.49432800569607E-17
      1.00000000000000E+04
      8.00000000000000E-01   0.00000000000000E+00  -1.71771747599451E+01  -6.07681862033647E-13   2.95720722781877E-16
     -5.91866190223363E-17  -2.81944589576030E-16   9.27782037237658E-19  -1.37761332058601E-17  -5.29100716079855E-12
     -2.81934654797591E-16   1.15459553786393E-11   3.23062322231984E-16  -3.79457568502135E-12  -4.11276674341203E-17
      5.29094890907667E-12  -1.37860679843003E-17  -9.08552365748899E-12  -4.11177326556801E-17   3.79801163771029E-12
      5.49038006394836E-17
      1.00000000000000E+04
      8.00000000000000E-01   0.00000000000000E+00  -1.76771747599451E+01  -3.03840931016824E-13   2.90473337698193E-16
     -6.59211337756341E-17  -2.77198311755594E-16   5.46288595980111E-18  -1.32750259426089E-17  -1.27085163855946E-11
     -2.77174964853526E-16   2.00535014471104E-11   3.18765339116533E-16  -9.42878269498659E-12  -4.15903742627573E-17
      1.27084559095056E-11  -1.32983728446777E-17  -2.21372331577362E-11  -4.15670273606885E-17   9.26714839601312E-12
      5.48654002053514E-17
      1.00000000000000E+04
      8.00000000000000E-01   0.00000000000000E+00  -1.81771747599451E+01   7.59602327542059E-13   2.85536564623312E-16
     -8.29804065200284E-17  -2.72728336673727E-16   1.43751866438671E-17  -1.28082279496116E-17  -2.94871712918230E-11
     -2.72675313476347E-16   5.19567992038768E-11   3.14688987747072E-16  -2.25841475334597E-11  -4.20136742706647E-17
      2.94871026770665E-11  -1.28612511469915E-17  -5.20712358517219E-11  -4.19606510732849E-17   2.26361493607534E-11
      5.48219022193242E-17
      1.00000000000000E+04
      8.00000000000000E-01   0.00000000000000E+00  -1.86771747599451E+01  -6.07681862033647E-13   2.80937160560546E-16
     -1.18533270315707E-16  -2.68563252591242E-16   3.13991692015370E-17  -1.23739079693361E-17  -6.59332790241884E-11
     -2.68447184093636E-16   1.17738360769019E-10   3.10834001868415E-16  -5.20052217866583E-11  -4.23868177745487E-17
      6.59331919013771E-11  -1.24899764669427E-17  -1.17938382308369E-10  -4.22707492769420E-17   5.19567992038768E-11
      5.47607257440662E-17
      1.00000000000000E+04
      8.00000000000000E-01   0.00000000000000E+00  -1.91771747599451E+01   1.51920465508412E-13   2.76696779657695E-16
     -1.82210006262537E-16  -2.64728802478720E-16   6.09922581123588E-17  -1.19679771789960E-17  -1.41627657508729E-10
     -2.64484775599882E-16   2.56745586709216E-10   3.07174779059400E-16  -1.14742747779958E-10  -4.26900034588171E-17
      1.41627536279729E-10  -1.22120040578343E-17  -2.56370223077386E-10  -4.24459765799788E-17   1.15003792389868E-10
      5.46579806378162E-17
      1.00000000000000E+04
      8.00000000000000E-01   0.00000000000000E+00  -1.96771747599451E+01  -3.03840931016824E-13   2.72831869193424E-16
     -2.76188926322450E-16  -2.61248504546613E-16   1.04208691783277E-16  -1.15833646468465E-17  -2.91049725604667E-10
     -2.60758095833624E-16   5.35975402313677E-10   3.03646831832949E-16  -2.41523886751669E-10  -4.28887359980911E-17
      2.91049553617568E-10  -1.20737733598364E-17  -5.32573336169680E-10  -4.23983272851011E-17   2.41401619692866E-10
      5.44721006438819E-17
      1.00000000000000E+04
      8.00000000000000E-01   0.00000000000000E+00  -2.01771747599451E+01   0.00000000000000E+00   2.69354254888869E-16
     -3.80824985764759E-16  -2.58144657274764E-16   1.51931413747092E-16  -1.12095976141470E-17  -5.69181601428965E-10
     -2.57208505023609E-16   1.05417611016287E-09   3.00137744733924E-16  -4.82364099112048E-10  -4.29292397101974E-17
      5.69181372498782E-10  -1.21457498653030E-17  -1.05154531969716E-09  -4.19930874590415E-17   4.82955159851241E-10
      5.41388373241124E-17
      1.00000000000000E+04
      8.00000000000000E-01   0.00000000000000E+00  -2.06771747599451E+01  -6.07681862033647E-13   2.66271297466964E-16
     -4.57915064479831E-16  -2.55437852823331E-16   1.86086804873524E-16  -1.08334446436785E-17  -1.05255677061747E-09
     -2.53753235824678E-16   1.96205281204114E-09   2.96494483014268E-16  -9.08174903736479E-10  -4.27412471891590E-17
      1.05255649878673E-09  -1.25180616423333E-17  -1.96073121648312E-09  -4.10566301905031E-17   9.08028622343777E-10
      5.35746918329034E-17
      1.00000000000000E+04
      8.00000000000000E-01   0.00000000000000E+00  -2.11771747599451E+01   1.06344325855888E-12   2.63584067713945E-16
     -4.84312882055799E-16  -2.53142510288339E-16   1.95616374198441E-16  -1.04415574256227E-17  -1.82862564587854E-09
     -2.50307149620086E-16   3.43173139536951E-09   2.92563894106567E-16  -1.60138010767909E-09  -4.22567444860127E-17
      1.82862535718905E-09  -1.32769180938744E-17  -3.43000526925489E-09  -3.94213838177610E-17   1.60093786552764E-09
      5.26983019114700E-17
      1.00000000000000E+04
      8.00000000000000E-01   0.00000000000000E+00  -2.16771747599451E+01  -1.51920465508412E-13   2.61283042060534E-16
     -4.70845354883823E-16  -2.51257910842444E-16   1.85775506312581E-16  -1.00251312181167E-17  -2.96962311341397E-09
     -2.46821393315532E-16   5.60115564282963E-09   2.88266971084029E-16  -2.63133019017444E-09  -4.14455777687705E-17
      2.96962282833034E-09  -1.44616487450276E-17  -5.60095283272519E-09  -3.70090602418613E-17   2.63141438307120E-09
      5.14707089870068E-17
      1.00000000000000E+04
      8.00000000000000E-01   0.00000000000000E+00  -2.21771747599451E+01   6.07681862033647E-13   2.59343680022605E-16
     -4.38173987651098E-16  -2.49759309626340E-16   1.67077180313501E-16  -9.58437039629718E-18  -4.50040169499670E-09
     -2.43317568124138E-16   8.52364963781495E-09   2.83665849464503E-16  -4.02300145784471E-09  -4.03482813394530E-17
      4.50040142387635E-09  -1.60261118985003E-17  -8.52340271465225E-09  -3.39065398372515E-17   4.02315776759376E-09
      4.99326517359306E-17
      1.00000000000000E+04
      8.00000000000000E-01   0.00000000000000E+00  -2.26771747599451E+01  -9.11522793050471E-13   2.57726183685103E-16
     -3.98227784193623E-16  -2.48596944149625E-16   1.45878278869344E-16  -9.12923953551046E-18  -6.38233057401395E-09
     -2.39885843300647E-16   1.21196070563991E-08   2.78960915997660E-16  -5.74035647192466E-09  -3.90750726966016E-17
      6.38233032165823E-09  -1.78403403844912E-17  -1.21226866477255E-08  -3.03639718476213E-17   5.74046670970085E-09
      4.82043122320830E-17
      1.00000000000000E+04
      8.00000000000000E-01   0.00000000000000E+00  -2.31771747599451E+01  -1.51920465508412E-13   2.56381199331796E-16
     -3.58503772931316E-16  -2.47705809389095E-16   1.25721527764348E-16  -8.67538994272900E-18  -8.52710524897077E-09
     -2.36642597370669E-16   1.62243461139708E-08   2.74407468336998E-16  -7.69866602261712E-09  -3.77648709648830E-17
      8.52710501619665E-09  -1.97386019611540E-17  -1.62257709130887E-08  -2.67016589464598E-17   7.69841766917326E-09
      4.64402609068071E-17
      1.00000000000000E+04
      8.00000000000000E-01   0.00000000000000E+00  -2.36771747599451E+01   7.59602327542059E-13   2.55258278659955E-16
     -3.24920697600735E-16  -2.47020054798492E-16   1.08890348987837E-16  -8.23822386149961E-18  -1.08294468667064E-08
     -2.33680919357002E-16   2.06256339202150E-08   2.70216564031740E-16  -9.79593325964964E-09  -3.65356446742462E-17
      1.08294466506783E-08  -2.15773593029910E-17  -2.06253798014460E-08  -2.31965092327558E-17   9.79613545691341E-09
      4.47738685348523E-17
      1.00000000000000E+04
      8.00000000000000E-01   0.00000000000000E+00  -2.41771747599451E+01  -3.03840931016824E-13   2.54312468041582E-16
     -2.99716556353071E-16  -2.46483616368321E-16   9.60105063862592E-17  -7.82885167329455E-18  -1.31960704193564E-08
     -2.31046462114507E-16   2.51364563820908E-08   2.66504984175749E-16  -1.19413996554888E-08  -3.54585220616792E-17
      1.31960702156283E-08  -2.32660059271184E-17  -2.51374697751395E-08  -2.00213678078518E-17   1.19411005094267E-08
      4.32873737357547E-17
      1.00000000000000E+04
      8.00000000000000E-01   0.00000000000000E+00  -2.46771747599451E+01   0.00000000000000E+00   2.53507116698233E-16
     -2.81562033093603E-16  -2.46054012221675E-16   8.63643901334828E-17  -7.45310447659971E-18  -1.55590724342598E-08
     -2.28741202327814E-16   2.96276811039160E-08   2.63300752047482E-16  -1.40690513278572E-08  -3.45595497193072E-17
      1.55590722390468E-08  -2.47659143704569E-17  -2.96281234805157E-08  -1.72467398254625E-17   1.40688985493375E-08
      4.20126541950060E-17
      1.00000000000000E+04
      8.00000000000000E-01   0.00000000000000E+00  -2.51771747599451E+01  -1.51920465508412E-13   2.52813781102538E-16
     -2.67627628930898E-16  -2.45701265084410E-16   7.88108052986746E-17  -7.11251601817123E-18  -1.78761318752202E-08
     -2.26739573200784E-16   3.40180306366436E-08   2.60574124117591E-16  -1.61380823541830E-08  -3.38345509161417E-17
      1.78761316864083E-08  -2.60742079017931E-17  -3.40142139617589E-08  -1.48728590325339E-17   1.61383591304931E-08
      4.09470669342865E-17
      1.00000000000000E+04
      8.00000000000000E-01   0.00000000000000E+00  -2.56771747599451E+01  -3.03840931016824E-13   2.52210828535031E-16
     -2.55495189232339E-16  -2.45404966409770E-16   7.24169855705583E-17  -6.80586212530321E-18  -2.01247094233631E-08
     -2.25003906782908E-16   3.82482559987253E-08   2.58268053008481E-16  -1.81272784878138E-08  -3.32641462251308E-17
      2.01247092402765E-08  -2.72069217521757E-17  -3.82519876556981E-08  -1.28630865982583E-17   1.81266941830672E-08
      4.00700083491835E-17
      1.00000000000000E+04
      8.00000000000000E-01   0.00000000000000E+00  -2.61771747599451E+01  -3.03840931016824E-13   2.51681825958460E-16
     -2.43776525078619E-16  -2.45151350126984E-16   6.66362108102051E-17  -6.53047583152191E-18  -2.22954329206591E-08
     -2.23494516757729E-16   4.23221552017989E-08   2.56318485525751E-16  -2.00284853691489E-08  -3.28239687669238E-17
      2.22954327435371E-08  -2.81873092007846E-17  -4.23239180460652E-08  -1.11671353976641E-17   2.00279788089049E-08
      3.93544445979606E-17
      1.00000000000000E+04