DF-ISE text

Info {
  version   = 1.0
  type      = xyplot
  datasets  = [
    "frequency"
    "v(Ntop)" "v(Ptop)" "v(Pbot)" "a(Ntop,Ntop)" "c(Ntop,Ntop)"
    "a(Ntop,Ptop)" "c(Ntop,Ptop)" "a(Ntop,Pbot)" "c(Ntop,Pbot)" "a(Ptop,Ntop)"
    "c(Ptop,Ntop)" "a(Ptop,Ptop)" "c(Ptop,Ptop)" "a(Ptop,Pbot)" "c(Ptop,Pbot)"
    "a(Pbot,Ntop)" "c(Pbot,Ntop)" "a(Pbot,Ptop)" "c(Pbot,Ptop)" "a(Pbot,Pbot)"
    "c(Pbot,Pbot)" ]
  functions = [
    Frequency
    Voltage Voltage Voltage Admittance Capacitance
    Admittance Capacitance Admittance Capacitance Admittance
    Capacitance Admittance Capacitance Admittance Capacitance
    Admittance Capacitance Admittance Capacitance Admittance
    Capacitance ]
}

Data {
      1.00000000000000E+04
      8.00000000000000E-01   0.00000000000000E+00  -5.00000000000000E-02  -7.59602327542059E-13   1.18247356971966E-15
     -2.69825152008014E-14  -1.07729934984568E-15  -6.79102811962431E-15  -1.05174219874584E-16  -2.69851686427478E-14
     -1.07729936099810E-15  -1.21536372406729E-12   1.07731947509307E-15   4.89761569923108E-15  -2.01140932279473E-20
     -6.78946422105246E-15  -1.05174208722230E-16   4.89605497461216E-15  -2.01252455961913E-20   4.55761396525235E-13
      1.05194333966521E-16
      1.00000000000000E+04
      8.00000000000000E-01   0.00000000000000E+00  -1.45555555555556E-01   9.11522793050471E-13   1.17831622240468E-15
     -2.67898318710320E-14  -1.07727644173821E-15  -6.43455872764217E-15  -1.01039780666688E-16  -2.67912478078644E-14
     -1.07727645308740E-15  -7.59602327542059E-13   1.07730451122901E-15   4.70505813986508E-15  -2.80581395313972E-20
     -6.43313881586866E-15  -1.01039769317735E-16   4.70364347300672E-15  -2.80694885281478E-20  -1.51920465508412E-13
      1.01067838805752E-16
      1.00000000000000E+04
      8.00000000000000E-01   0.00000000000000E+00  -3.28172839506173E-01   9.11522793050471E-13   1.17154478470150E-15
     -2.64737398897691E-14  -1.07720656286874E-15  -5.87250849673273E-15  -9.43382218332367E-17  -2.64748928863590E-14
     -1.07720657452868E-15  -2.12688651711777E-12   1.07725804937741E-15   4.39286758650806E-15  -5.14748472697262E-20
     -5.87149449113858E-15  -9.43382101734234E-17   4.39185728996435E-15  -5.14865071059154E-20  -4.55761396525235E-13
      9.43896966807221E-17
      1.00000000000000E+04
      8.00000000000000E-01   0.00000000000000E+00  -6.77174759945130E-01  -3.03840931016824E-13   1.16140791326931E-15
     -2.59984394030552E-14  -1.07689364264863E-15  -5.08601095821332E-15  -8.45142706206089E-17  -2.59981696363279E-14
     -1.07689365475473E-15  -1.36728418957571E-12   1.07704363870564E-15   3.93465204352320E-15  -1.49983950773286E-19
     -5.08656227888186E-15  -8.45142585145349E-17   3.93519868589420E-15  -1.49996056848193E-19   6.07681862033647E-13
      8.46642545710740E-17
      1.00000000000000E+04
      8.00000000000000E-01   0.00000000000000E+00  -1.17717475994513E+00   0.00000000000000E+00   1.14970135808171E-15
     -2.54290802624876E-14  -1.07536716409652E-15  -4.31391916194609E-15  -7.43341939857049E-17  -2.54222193473156E-14
     -1.07536717668273E-15  -1.21536372406729E-12   1.07595197977711E-15   3.45550513775310E-15  -5.84803093286269E-19
     -4.32105992422509E-15  -7.43341813997956E-17   3.46265391093483E-15  -5.84815679235273E-19   3.03840931016824E-13
      7.49189970785558E-17
      1.00000000000000E+04
      8.00000000000000E-01   0.00000000000000E+00  -1.67717475994513E+00   3.03840931016824E-13   1.13670521337459E-15
     -2.46957365013675E-14  -1.07016935706957E-15  -3.73698257254361E-15  -6.65358563052510E-17  -2.46698793799822E-14
     -1.07016937014906E-15  -2.58264791364300E-12   1.07203000893943E-15   3.07113154900285E-15  -1.86063878842315E-18
     -3.76321829316459E-15  -6.65358432257040E-17   3.09736080301784E-15  -1.86065186796124E-18  -1.51920465508412E-13
      6.83964950931785E-17
      1.00000000000000E+04
      8.00000000000000E-01   0.00000000000000E+00  -2.17717475994513E+00  -3.03840931016824E-13   1.11479791177605E-15
     -2.31902167822978E-14  -1.05551485948003E-15  -3.18387930081196E-15  -5.92830522961000E-17  -2.31217999846206E-14
     -1.05551487312557E-15  -1.36728418957571E-12   1.06034924413965E-15   2.66705015034810E-15  -4.83437101281319E-18
     -3.25236830755855E-15  -5.92830386507988E-17   2.73554405638218E-15  -4.83438465814027E-18   4.55761396525235E-13
      6.41174233082034E-17
      1.00000000000000E+04
      8.00000000000000E-01   0.00000000000000E+00  -2.67717475994513E+00   2.27880698262618E-12   1.07406571339073E-15
     -2.00773172354320E-14  -1.02302114652732E-15  -2.52906998009774E-15  -5.10445668641049E-17  -1.99362187512582E-14
     -1.02302116070874E-15  -3.03840931016824E-13   1.03322475862539E-15   2.13971089500364E-15  -1.02035979145354E-17
     -2.67074703130427E-15  -5.10445526827314E-17   2.28139013488507E-15  -1.02036120959138E-17   1.51920465508412E-13
      6.12481647780401E-17
      1.00000000000000E+04
      8.00000000000000E-01   0.00000000000000E+00  -3.17717475994513E+00   1.67112512059253E-12   1.01563696476556E-15
     -1.56524846993364E-14  -9.73403771516745E-16  -1.82917962476594E-15  -4.22331932483367E-17  -1.54318269572312E-14
     -9.73403785600944E-16  -2.12688651711777E-12   9.90510411558211E-16   1.55134911769479E-15  -1.71066259566931E-17
     -2.05045044311815E-15  -4.22331791641940E-17   1.77261711975477E-15  -1.71066400408411E-17   4.55761396525235E-13
      5.93398192043364E-17
      1.00000000000000E+04
      8.00000000000000E-01   0.00000000000000E+00  -3.67717475994513E+00   1.51920465508412E-12   9.60083690181403E-16
     -1.18718114290271E-14  -9.25051532444585E-16  -1.30316499301734E-15  -3.50321577370032E-17  -1.16203920769007E-14
     -9.25051545367128E-16  -7.59602327542059E-13   9.48179753696789E-16   1.10894398036582E-15  -2.31282083281056E-17
     -1.55511679834528E-15  -3.50321448145137E-17   1.36088691268139E-15  -2.31282212506009E-17   4.55761396525235E-13
      5.81603660643174E-17
      1.00000000000000E+04
      8.00000000000000E-01   0.00000000000000E+00  -4.17717475994513E+00  -4.55761396525235E-13   9.19681284640110E-16
     -9.51782396620749E-15  -8.89504548161373E-16  -9.95503590419749E-16  -3.01767364789679E-17  -9.29522837928547E-15
     -8.89504559354946E-16  -2.12688651711777E-12   9.16791422441508E-16   8.54471488694474E-16  -2.72868630857996E-17
     -1.21858375978038E-15  -3.01767252854730E-17   1.07755636866366E-15  -2.72868742793015E-17  -4.55761396525235E-13
      5.74635995642943E-17
      1.00000000000000E+04
      8.00000000000000E-01   0.00000000000000E+00  -4.67717475994513E+00  -1.06344325855888E-12   8.90480188429111E-16
     -8.02845339878594E-15  -8.63666460921919E-16  -8.09549132994548E-16  -2.68137275073490E-17  -7.86869047517184E-15
     -8.63666470353488E-16  -1.97496605160935E-12   8.93865724151566E-16   7.03454857473479E-16  -3.01992537977777E-17
     -9.69261389611438E-16  -2.68137180757579E-17   8.63164404939669E-16  -3.01992632293664E-17   1.51920465508412E-13
      5.70129813051257E-17
      1.00000000000000E+04
      8.00000000000000E-01   0.00000000000000E+00  -5.17717475994513E+00   1.51920465508412E-13   8.66790216471563E-16
     -6.96320465361820E-15  -8.42615853229346E-16  -6.82262694370735E-16  -2.41743632424158E-17  -6.86225292178655E-15
     -8.42615861341608E-16  -1.82304558610094E-12   8.75118136339551E-16   5.99504496409031E-16  -3.25022749957624E-17
     -7.83167013221005E-16  -2.41743551302266E-17   7.00417106738867E-16  -3.25022831079577E-17  -1.51920465508412E-13
      5.66766382375128E-17
      1.00000000000000E+04
      8.00000000000000E-01   0.00000000000000E+00  -5.67717475994513E+00   1.51920465508412E-13   8.45140748792876E-16
     -6.13008770796579E-15  -8.23295800203979E-16  -5.85919860290590E-16  -2.18449485893459E-17  -6.06529303311515E-15
     -8.23295807536559E-16  -2.58264791364300E-12   8.57845028625586E-16   5.18734068898549E-16  -3.45492210875559E-17
     -6.50597469455096E-16  -2.18449412567255E-17   5.83407803880707E-16  -3.45492284201731E-17  -1.51920465508412E-13
      5.63941696758149E-17
      1.00000000000000E+04
      8.00000000000000E-01   0.00000000000000E+00  -6.17717475994513E+00   1.06344325855888E-12   8.23256225686227E-16
     -5.38705165461631E-15  -8.03669685649811E-16  -5.03125459441293E-16  -1.95865400367116E-17  -5.34243924281219E-15
     -8.03669692528967E-16  -2.12688651711777E-12   8.40218595412716E-16   4.47270698684660E-16  -3.65489028826186E-17
     -5.48378333067296E-16  -1.95865331576148E-17   4.92530054950746E-16  -3.65489097617206E-17   3.03840931016824E-13
      5.61354429180981E-17
      1.00000000000000E+04
      8.00000000000000E-01   0.00000000000000E+00  -6.67717475994513E+00   4.55761396525235E-13   7.99029863239581E-16
     -4.60481224006712E-15  -7.81819663987417E-16  -4.20242988377408E-16  -1.72101992524418E-17  -4.57098843546896E-15
     -7.81819670535804E-16  -1.36728418957571E-12   8.20490541385765E-16   3.74039336387031E-16  -3.86708708490792E-17
     -4.55191695826429E-16  -1.72101927040560E-17   4.08992356211844E-16  -3.86708773974656E-17   1.51920465508412E-13
      5.58810701013660E-17
      1.00000000000000E+04
      8.00000000000000E-01   0.00000000000000E+00  -7.17717475994513E+00  -6.07681862033647E-13   7.70080194658742E-16
     -3.64862979488586E-15  -7.55549589979280E-16  -3.24869532044044E-16  -1.45306046797406E-17  -3.61872245397819E-15
     -7.55549596138467E-16  -1.82304558610094E-12   7.96634730305537E-16   2.88346801588869E-16  -4.10851341664181E-17
     -3.54653420862326E-16  -1.45305985205676E-17   3.18122906934277E-16  -4.10851403255919E-17  -3.03840931016824E-13
      5.56157388456983E-17
      1.00000000000000E+04
      8.00000000000000E-01   0.00000000000000E+00  -7.67717475994513E+00   0.00000000000000E+00   7.34838309281807E-16
     -2.43673610803860E-15  -7.23382589614369E-16  -2.11274000910520E-16  -1.14557196676303E-17  -2.40877448953591E-15
     -7.23382595087437E-16  -7.59602327542059E-13   7.67261562041926E-16   1.85160474635306E-16  -4.38789669537504E-17
     -2.39256346264355E-16  -1.14557141945685E-17   2.13133430723524E-16  -4.38789724268123E-17   0.00000000000000E+00
      5.53346866208512E-17
      1.00000000000000E+04
      8.00000000000000E-01   0.00000000000000E+00  -8.17717475994513E+00   4.55761396525235E-13   6.97243824459106E-16
     -1.20384012032713E-15  -6.88897901569362E-16  -1.01349878911537E-16  -8.34592288994246E-18  -1.17577997355636E-15
     -6.88897905858171E-16  -4.55761396525235E-13   7.35622122405704E-16   8.47419297726503E-17  -4.67242165464876E-17
     -1.29073024378001E-16  -8.34591860113058E-18   1.12458986656709E-16  -4.67242208352994E-17   1.51920465508412E-13
      5.50701394358610E-17
      1.00000000000000E+04
      8.00000000000000E-01   0.00000000000000E+00  -8.67717475994513E+00   6.07681862033647E-13   6.68384588825586E-16
     -4.40971284034174E-16  -6.62316256658480E-16  -3.58209779113816E-17  -6.06833216724265E-18  -4.13405677034253E-16
     -6.62316259519331E-16  -3.03840931016824E-12   7.11136411823120E-16   2.47633632155036E-17  -4.88201523024506E-17
     -6.31168583938748E-17  -6.06832930639127E-18   5.20589046890011E-17  -4.88201551633020E-17   4.55761396525235E-13
      5.48884844688062E-17
      1.00000000000000E+04
      8.00000000000000E-01   0.00000000000000E+00  -9.17717475994513E+00   1.06344325855888E-12   6.53146464858598E-16
     -1.66645799054713E-16  -6.48225111319248E-16  -1.27520506562105E-17  -4.92135353957689E-18  -1.41508222668212E-16
     -6.48225113041582E-16   1.21536372406729E-12   6.98107927622271E-16   3.40050652934812E-18  -4.98828145795774E-17
     -3.82427634682844E-17  -4.92135181724396E-18   2.88899437866044E-17  -4.98828163019104E-17   4.55761396525235E-13
      5.48041681184325E-17
      1.00000000000000E+04
      8.00000000000000E-01   0.00000000000000E+00  -9.67717475994513E+00   1.06344325855888E-12   6.46600129846122E-16
     -9.36174584704744E-17  -6.42144361515263E-16  -6.34952495184742E-18  -4.45576833100884E-18  -7.19650353202404E-17
     -6.42144362529628E-16  -1.82304558610094E-12   6.92464033260371E-16  -4.46494128466152E-18  -5.03196707297009E-17
     -2.78817699001131E-17  -4.45576731664780E-18   1.70612269401240E-17  -5.03196717440619E-17   0.00000000000000E+00
      5.47754390600415E-17
      1.00000000000000E+04
      8.00000000000000E-01   0.00000000000000E+00  -1.01771747599451E+01   1.36728418957571E-12   6.43767554693358E-16
     -7.09204070863626E-17  -6.39499528952163E-16  -4.08399400415113E-18  -4.26802574143767E-18  -5.72500038081103E-17
     -6.39499529550920E-16  -1.82304558610094E-12   6.90000382010965E-16  -1.56881133662062E-17  -5.05008524578265E-17
     -1.74636594777827E-17  -4.26802514268339E-18  -2.31010674005619E-18  -5.05008530565808E-17  -3.03840931016824E-13
      5.47688781985567E-17
      1.00000000000000E+04
      8.00000000000000E-01   0.00000000000000E+00  -1.06771747599451E+01  -1.51920465508412E-13   6.42333127890350E-16
     -5.72993750153667E-17  -6.38153607514402E-16  -2.63455119118421E-18  -4.17952037617403E-18  -6.31459005334394E-17
     -6.38153607838557E-16  -7.59602327542059E-13   6.88744493032928E-16  -5.22784389566680E-17  -5.05908851928016E-17
      3.77841749609020E-18  -4.17952005202389E-18  -5.87051096970788E-17  -5.05908855169518E-17   4.55761396525235E-13
      5.47704055687263E-17
      1.00000000000000E+04
      8.00000000000000E-01   0.00000000000000E+00  -1.11771747599451E+01  -1.51920465508412E-13   6.41431547713713E-16
     -4.20326141337364E-17  -6.37305319006665E-16  -1.40790082329289E-18  -4.12622870722747E-18  -1.07063425857124E-16
     -6.37305319056727E-16  -2.12688651711777E-12   6.87954261965804E-16  -1.80709232664189E-16  -5.06489429069687E-17
      6.22297258948507E-17  -4.12622865716668E-18  -2.44356107322285E-16  -5.06489429570296E-17   3.03840931016824E-13
      5.47751716136749E-17
      1.00000000000000E+04
      8.00000000000000E-01   0.00000000000000E+00  -1.16771747599451E+01  -1.51920465508412E-13   6.40751357912458E-16
     -3.13318753139514E-17  -6.36665284433472E-16  -4.81620045767100E-19  -4.08607347917762E-18  -2.78635841668925E-16
     -6.36665283960708E-16   1.06344325855888E-12   6.87360788573814E-16  -6.21557856360020E-16  -5.06955046128691E-17
      2.46596438340298E-16  -4.08607395194773E-18  -8.68628203196370E-16  -5.06955041400988E-17   0.00000000000000E+00
      5.47815780921931E-17
      1.00000000000000E+04
      8.00000000000000E-01   0.00000000000000E+00  -1.21771747599451E+01   1.36728418957571E-12   6.40176749224157E-16
     -2.42657460802060E-17  -6.36125522484152E-16   1.07455666264548E-19  -4.05122674024393E-18  -8.71358286176390E-16
     -6.36125520558887E-16   1.51920465508412E-13   6.86863391964570E-16  -2.08698870664912E-15  -5.07378714039871E-17
      8.47176407643603E-16  -4.05122866550807E-18  -2.93407259107457E-15  -5.07378694787229E-17   0.00000000000000E+00
      5.47890981439376E-17
      1.00000000000000E+04
      8.00000000000000E-01   0.00000000000000E+00  -1.26771747599451E+01  -3.03840931016824E-13   6.39661702395589E-16
     -1.90484355954287E-17  -6.35642966752637E-16   4.60576268238847E-19  -4.01873564319915E-18  -2.78731906343816E-15
     -6.35642960443206E-16   3.03840931016824E-13   6.86421787925859E-16  -6.79198892753530E-15  -5.07788274816090E-17
      2.76820875040062E-15  -4.01874195263195E-18  -9.55971539835132E-15  -5.07788211721761E-17   3.03840931016824E-13
      5.47975631250503E-17
      1.00000000000000E+04
      8.00000000000000E-01   0.00000000000000E+00  -1.31771747599451E+01   1.36728418957571E-12   6.39186212374844E-16
     -1.62191826614018E-17  -6.35198833733288E-16   7.02718730852291E-19  -3.98737864170484E-18  -8.73239932745887E-15
     -6.35198814315647E-16  -9.11522793050471E-13   6.86018363428399E-16  -2.13666797494966E-14  -5.08195491110201E-17
      8.71623325902851E-15  -3.98739805934685E-18  -3.00822037763697E-14  -5.08195296933780E-17   0.00000000000000E+00
      5.48069277523341E-17
      1.00000000000000E+04
      8.00000000000000E-01   0.00000000000000E+00  -1.36771747599451E+01   3.03840931016824E-13   6.38740595349086E-16
     -1.50216523353656E-17  -6.34784015222822E-16   9.28295174394655E-19  -3.95658012651182E-18  -2.65015862390142E-14
     -6.34783957763017E-16   2.88648884465982E-12   6.85644558530096E-16  -6.48972224739281E-14  -5.08606007649590E-17
      2.64871147963218E-14  -3.95663758631895E-18  -9.13833988142646E-14  -5.08605433051518E-17   0.00000000000000E+00
      5.48171808914541E-17
      1.00000000000000E+04
      8.00000000000000E-01   0.00000000000000E+00  -1.41771747599451E+01   7.59602327542059E-13   6.38319588493705E-16
     -1.32498677009379E-17  -6.34393571653035E-16   1.23712785064958E-18  -3.92601684082529E-18  -7.76793995917212E-14
     -6.34393407536697E-16   1.97496605160935E-12   6.85295675742928E-16  -1.90173484247684E-13  -5.09022682046558E-17
      7.76663074731959E-14  -3.92618095716427E-18  -2.67838562031692E-13  -5.09021040883169E-17   3.03840931016824E-13
      5.48282850450522E-17
      1.00000000000000E+04
      8.00000000000000E-01   0.00000000000000E+00  -1.46771747599451E+01   3.03840931016824E-13   6.37919999750430E-16
     -1.50006430314001E-17  -6.34024536534966E-16   1.77664218539583E-18  -3.89546321563291E-18  -2.19648812486318E-13
     -6.34024084034137E-16   5.31721629279441E-12   6.84968701697758E-16  -5.37320674956690E-13  -5.09446176629874E-17
      2.19635995862937E-13  -3.89591571646951E-18  -7.56954907100132E-13  -5.09441651621509E-17   3.03840931016824E-13
      5.48400808783822E-17
      1.00000000000000E+04
      8.00000000000000E-01   0.00000000000000E+00  -1.51771747599451E+01  -4.55761396525235E-13   6.37539710826148E-16
     -1.51056895512278E-17  -6.33674992231947E-16   2.84847169270231E-18  -3.86471859434526E-18  -5.98662571174951E-13
     -6.33673788601668E-16   5.77297768931965E-12   6.84661149224283E-16  -1.46278783707786E-12  -5.09873606213810E-17
      5.98650385517349E-13  -3.86592222462577E-18  -2.06143534955653E-12  -5.09861569911004E-17   1.36728418957571E-12
      5.48520792159672E-17
      1.00000000000000E+04
      8.00000000000000E-01   0.00000000000000E+00  -1.56771747599451E+01  -7.59602327542059E-13   6.37177230117469E-16
     -1.81870541328413E-17  -6.33343674787083E-16   5.08268386689135E-18  -3.83355533047339E-18  -1.57149874430246E-12
     -6.33340588827563E-16   6.98834141338694E-12   6.84370034303261E-16  -3.83393392194138E-12  -5.10294454749100E-17
      1.57148565599447E-12  -3.83664128999588E-18  -5.40541447325848E-12  -5.10263595153874E-17   3.64609117220188E-12
      5.48630008053763E-17
      1.00000000000000E+04
      8.00000000000000E-01   0.00000000000000E+00  -1.61771747599451E+01   6.07681862033647E-13   6.36831491672667E-16
     -2.42587429788842E-17  -6.33029835885321E-16   9.80664646683319E-18  -3.80165578747498E-18  -3.96919147985117E-12
     -6.33022218062434E-16   1.59516488783832E-11   6.84090369045965E-16  -9.66469012071955E-12  -5.10681509821631E-17
      3.96917664679283E-12  -3.80927361036248E-18  -1.36338569614502E-11  -5.10605331592756E-17   9.11522793050471E-12
      5.48698067693837E-17
      1.00000000000000E+04
      8.00000000000000E-01   0.00000000000000E+00  -1.66771747599451E+01  -6.07681862033647E-13   6.36501785201082E-16
     -3.82999611291910E-17  -6.32733273624633E-16   1.96287300242167E-17  -3.76851157657345E-18  -9.63388326678045E-12
     -6.32715194072499E-16   3.52455479979515E-11   6.83812471532997E-16  -2.34013183022990E-11  -5.10972774601708E-17
      9.63386487905941E-12  -3.78659112871236E-18  -3.30351635477580E-11  -5.10791979080319E-17   2.36995926193122E-11
      5.48657890362680E-17
      1.00000000000000E+04
      8.00000000000000E-01   0.00000000000000E+00  -1.71771747599451E+01   7.59602327542059E-13   6.36187778344196E-16
     -6.60112330597466E-17  -6.32454521132296E-16   3.90562889981288E-17  -3.73325721208249E-18  -2.24320495668415E-11
     -6.32413349770119E-16   7.77832783403068E-11   6.83517210055206E-16  -5.43276319096187E-11  -5.11038602842370E-17
      2.24320227421839E-11  -3.77442857426240E-18  -7.67596155537486E-11  -5.10626889220571E-17   5.43875266520114E-11
      5.48371174956329E-17
      1.00000000000000E+04
      8.00000000000000E-01   0.00000000000000E+00  -1.76771747599451E+01  -1.51920465508412E-13   6.35889621511360E-16
     -1.15257041554987E-16  -6.32195203780868E-16   7.40343616296649E-17  -3.69441773061952E-18  -4.99872925732580E-11
     -6.32105498703494E-16   1.70302841834930E-10   6.83168381696177E-16  -1.20623481320421E-10  -5.10628829911408E-17
      4.99872505649301E-11  -3.78412280799622E-18  -1.70610657829251E-10  -5.09731779137642E-17   1.21080611010204E-10
      5.47573007208332E-17
      1.00000000000000E+04
      8.00000000000000E-01   0.00000000000000E+00  -1.81771747599451E+01  -1.36728418957571E-12   6.35608121765194E-16
     -1.94259027566763E-16  -6.31958531103646E-16   1.27740186191608E-16  -3.64959066169952E-18  -1.06243116298180E-10
     -6.31772287876682E-16   3.63089912565104E-10   6.82702602135287E-16  -2.55229757014176E-10  -5.09303142565767E-17
      1.06243050195712E-10  -3.83583388866611E-18  -3.61472679449092E-10  -5.07440710296105E-17   2.54922541123115E-10
      5.45799049182159E-17
      1.00000000000000E+04
      8.00000000000000E-01   0.00000000000000E+00  -1.86771747599451E+01   9.11522793050471E-13   6.35344926010699E-16
     -2.88072572874249E-16  -6.31749733212160E-16   1.91699174254095E-16  -3.59519279873373E-18  -2.14383087750611E-10
     -6.31383347449373E-16   7.28610552578343E-10   6.82020749447657E-16  -5.12187697112175E-10  -5.06374019967341E-17
      2.14382990549705E-10  -3.96157856151843E-18  -7.26570495955450E-10  -5.02710162339500E-17   5.12275809694365E-10
      5.42325947947981E-17
      1.00000000000000E+04
      8.00000000000000E-01   0.00000000000000E+00  -1.91771747599451E+01   3.03840931016824E-13   6.35102557983895E-16
     -3.69343563714304E-16  -6.31575968944459E-16   2.42910642079966E-16  -3.52658903954561E-18  -4.08342158274322E-10
     -6.30897864941913E-16   1.38034934960943E-09   6.80991769483671E-16  -9.68991221260918E-10  -5.00939045406351E-17
      4.08342031817055E-10  -4.20469304209015E-18  -1.37733301015301E-09  -4.94158005380914E-17   9.69100649478159E-10
      5.36204935803509E-17
      1.00000000000000E+04
      8.00000000000000E-01   0.00000000000000E+00  -1.96771747599451E+01   3.03840931016824E-13   6.34884062945168E-16
     -4.05906755715677E-16  -6.31445017534220E-16   2.60993418143400E-16  -3.43904541110361E-18  -7.29629438846599E-10
     -6.30273349233487E-16   2.44986942678865E-09   6.79484566070978E-16  -1.71714217439505E-09  -4.92112168368851E-17
      7.29629293941856E-10  -4.61071371184091E-18  -2.44677120733133E-09  -4.80395485361499E-17   1.71670126024505E-09
      5.26502622481490E-17
      1.00000000000000E+04
      8.00000000000000E-01   0.00000000000000E+00  -2.01771747599451E+01   9.11522793050471E-13   6.34692105175673E-16
     -3.97685114763826E-16  -6.31362467498873E-16   2.46786772088754E-16  -3.32963767700434E-18  -1.21675241736338E-09
     -6.29484305473478E-16   4.05217457650587E-09   6.77432004442114E-16  -2.83530558069711E-09  -4.79476989670366E-17
      1.21675226614017E-09  -5.20779970240046E-18  -4.05205760004887E-09  -4.60695369416430E-17   2.83574740918001E-09
      5.12773366434107E-17
      1.00000000000000E+04
      8.00000000000000E-01   0.00000000000000E+00  -2.06771747599451E+01  -1.51920465508412E-13   6.34527790565132E-16
     -3.65246749441023E-16  -6.31328503572881E-16   2.16221593301168E-16  -3.19928699244916E-18  -1.88988203167781E-09
     -6.28541924054308E-16   6.24058888215454E-09   6.74894299553378E-16  -4.35320429801591E-09  -4.63523754974535E-17
      1.88988188199563E-09  -5.98586651102387E-18  -6.24308596379129E-09  -4.35657959788817E-17   4.35328093914354E-09
      4.95516624894736E-17
      1.00000000000000E+04
      8.00000000000000E-01   0.00000000000000E+00  -2.11771747599451E+01   0.00000000000000E+00   6.34389950166246E-16
     -3.28256368259018E-16  -6.31336621821682E-16   1.83290143879339E-16  -3.05332834471980E-18  -2.74041522471271E-09
     -6.27497533620956E-16   8.97135924966824E-09   6.72063233428223E-16  -6.23056694638685E-09  -4.45656998058414E-17
      2.74041508003588E-09  -6.89241654544638E-18  -8.97098184312683E-09  -4.07266116051203E-17   6.23025829049997E-09
      4.76190281501839E-17
      1.00000000000000E+04
      8.00000000000000E-01   0.00000000000000E+00  -2.16771747599451E+01   6.07681862033647E-13   6.34275432677718E-16
     -2.91511095623277E-16  -6.31375573024034E-16   1.53532521586973E-16  -2.89985965391475E-18  -3.73389170462641E-09
     -6.26423210400569E-16   1.21004650777450E-08   6.69189418084132E-16  -8.36979918496732E-09  -4.27662076819879E-17
      3.73389156605791E-09  -7.85222227737603E-18  -1.21036905974497E-08  -3.78138450585406E-17   8.37005804718595E-09
      4.56660673359216E-17
      1.00000000000000E+04
      8.00000000000000E-01   0.00000000000000E+00  -2.21771747599451E+01  -6.07681862033647E-13   6.34180137516143E-16
     -2.57826178265185E-16  -6.31433113223982E-16   1.27721155892872E-16  -2.74702429239271E-18  -4.82370010793140E-09
     -6.25384398363409E-16   1.54747705371523E-08   6.66488129879348E-16  -1.06527107060025E-08  -4.11037315152208E-17
      4.82369997806881E-09  -8.79573915297186E-18  -1.54764105563686E-08  -3.50550166546421E-17   1.06523592005188E-08
      4.38507558070011E-17
      1.00000000000000E+04
      8.00000000000000E-01   0.00000000000000E+00  -2.26771747599451E+01   1.21536372406729E-12   6.34100044770391E-16
     -2.26466290545946E-16  -6.31499031817121E-16   1.05770655183635E-16  -2.60101295347621E-18  -5.96533542847276E-09
     -6.24423523995039E-16   1.89418994009853E-08   6.64088085511128E-16  -1.29748328602676E-08  -3.96645615141899E-17
      5.96533530760589E-09  -9.67652077555775E-18  -1.89401680621040E-08  -3.25890536921128E-17   1.29752231181424E-08
      4.22655744677274E-17
      1.00000000000000E+04
      8.00000000000000E-01   0.00000000000000E+00  -2.31771747599451E+01   6.07681862033647E-13   6.34031784822490E-16
     -1.98993124060333E-16  -6.31566303401474E-16   8.75855766959904E-17  -2.46548142129990E-18  -7.12425383453175E-09
     -6.23558932462059E-16   2.23863921154575E-08   6.62033768685685E-16  -1.52616862934125E-08  -3.84748362231559E-17
      7.12425372333250E-09  -1.04728523607159E-17  -2.23859399291405E-08  -3.04674652837547E-17   1.52607146012510E-08
      4.09403176436390E-17
      1.00000000000000E+04
      8.00000000000000E-01   0.00000000000000E+00  -2.36771747599451E+01   6.07681862033647E-13   6.33972766297147E-16
     -1.74692362473518E-16  -6.31630814911217E-16   7.28605865849523E-17  -2.34195138616168E-18  -8.27727496733611E-09
     -6.22791980499717E-16   2.57485439376242E-08   6.60313717970297E-16  -1.74689853313675E-08  -3.75217374700670E-17
      8.27727486479012E-09  -1.11807857976659E-17  -2.57462601233139E-08  -2.86829030585626E-17   1.74691824083468E-08
      3.98636888556047E-17
      1.00000000000000E+04
      8.00000000000000E-01   0.00000000000000E+00  -2.41771747599451E+01   3.03840931016824E-13   6.33921073245843E-16
     -1.56561333151251E-16  -6.31690549528399E-16   6.10747788830782E-17  -2.23052371776205E-18  -9.41059451566267E-09
     -6.22114941542791E-16   2.89847536938844E-08   6.58889170114323E-16  -1.95754500748743E-08  -3.67742285698941E-17
      9.41059442159492E-09  -1.18061317033760E-17  -2.89860444354085E-08  -2.71986205842841E-17   1.95752558216899E-08
      3.90047522878568E-17
      1.00000000000000E+04
      8.00000000000000E-01   0.00000000000000E+00  -2.46771747599451E+01   1.36728418957571E-12   6.33875300624508E-16
     -1.39879945802607E-16  -6.31744791521886E-16   5.16478691046022E-17  -2.13050910283673E-18  -1.05169848069648E-08
     -6.21516605205171E-16   3.20907676112039E-08   6.57713236016106E-16  -2.15746981729747E-08  -3.61966308100840E-17
      1.05169847195022E-08  -1.23586954195565E-17  -3.20916828408489E-08  -2.59684444933607E-17   2.15749849091771E-08
      3.83271399134018E-17
      1.00000000000000E+04
      8.00000000000000E-01   0.00000000000000E+00  -2.51771747599451E+01  -3.03840931016824E-13   6.33834406566587E-16
     -1.25817718348335E-16  -6.31793545404919E-16   4.40620280048373E-17  -2.04086116186816E-18  -1.15933929548600E-08
     -6.20985394066299E-16   3.50615723142209E-08   6.56740905459287E-16  -2.34688877205786E-08  -3.57555113920526E-17
      1.15933928732154E-08  -1.28490125004871E-17  -3.50622805497166E-08  -2.49473600534411E-17   2.34692811936015E-08
      3.77963725540984E-17
      1.00000000000000E+04
      8.00000000000000E-01   0.00000000000000E+00  -2.56771747599451E+01  -1.51920465508412E-13   6.33797601943739E-16
     -1.15095970224585E-16  -6.31837169010330E-16   3.78984439092055E-17  -1.96043293369409E-18  -1.26392297397558E-08
     -6.20510776703951E-16   3.79038523034177E-08   6.55933088007509E-16  -2.52644941159761E-08  -3.54223113027671E-17
      1.26392296638580E-08  -1.32868252400828E-17  -3.79037237419629E-08  -2.40959189963772E-17   2.52639176526524E-08
      3.73827442350105E-17
      1.00000000000000E+04
      8.00000000000000E-01   0.00000000000000E+00  -2.61771747599451E+01   3.03840931016824E-13   6.33764274019583E-16
     -1.02707483986234E-16  -6.31876162261231E-16   3.28385085676908E-17  -1.88811175851266E-18  -1.36552630951102E-08
     -6.20083732943674E-16   4.06252036020699E-08   6.55257508348437E-16  -2.69697720205216E-08  -3.51737754048033E-17
      1.36552630237356E-08  -1.36805410760774E-17  -4.06250350114645E-08  -2.33813460872259E-17   2.69699844803118E-08
      3.70618871632432E-17
      1.00000000000000E+04