DF-ISE text

Info {
  version   = 1.0
  type      = xyplot
  datasets  = [
    "frequency"
    "v(Ntop)" "v(Ptop)" "v(Pbot)" "a(Ntop,Ntop)" "c(Ntop,Ntop)"
    "a(Ntop,Ptop)" "c(Ntop,Ptop)" "a(Ntop,Pbot)" "c(Ntop,Pbot)" "a(Ptop,Ntop)"
    "c(Ptop,Ntop)" "a(Ptop,Ptop)" "c(Ptop,Ptop)" "a(Ptop,Pbot)" "c(Ptop,Pbot)"
    "a(Pbot,Ntop)" "c(Pbot,Ntop)" "a(Pbot,Ptop)" "c(Pbot,Ptop)" "a(Pbot,Pbot)"
    "c(Pbot,Pbot)" ]
  functions = [
    Frequency
    Voltage Voltage Voltage Admittance Capacitance
    Admittance Capacitance Admittance Capacitance Admittance
    Capacitance Admittance Capacitance Admittance Capacitance
    Admittance Capacitance Admittance Capacitance Admittance
    Capacitance ]
}

Data {
      1.00000000000000E+04
      8.00000000000000E-01   0.00000000000000E+00  -5.00000000000000E-02  -7.59602327542059E-13   2.85763865767090E-15
     -6.94448725860596E-15  -2.75245134955556E-15  -2.24465077373452E-15  -1.05187308115927E-16  -6.94850571685091E-15
     -2.75245135096617E-15  -6.07681862033647E-13   2.75246288274878E-15   1.19186717942260E-15  -1.15317814093358E-20
     -2.24332640056939E-15  -1.05187306705241E-16   1.19053748187992E-15  -1.15331920822592E-20   3.03840931016824E-13
      1.05198839896976E-16
      1.00000000000000E+04
      8.00000000000000E-01   0.00000000000000E+00  -1.45555555555556E-01  -6.07681862033647E-13   2.85349680770580E-15
     -6.90113951363543E-15  -2.75243900551345E-15  -2.09877922282377E-15  -1.01057802192977E-16  -6.90267450236606E-15
     -2.75243900696741E-15   0.00000000000000E+00   2.75245510813206E-15   1.14512895363373E-15  -1.61011636388385E-20
     -2.09755675816032E-15  -1.01057800739043E-16   1.14391693772500E-15  -1.61026175840570E-20  -1.51920465508412E-13
      1.01073903356407E-16
      1.00000000000000E+04
      8.00000000000000E-01   0.00000000000000E+00  -3.28172839506173E-01   7.59602327542059E-13   2.84677202849468E-15
     -6.82430540647630E-15  -2.75240143483777E-15  -1.87273326844158E-15  -9.43705936574110E-17  -6.82583901856796E-15
     -2.75240143636156E-15  -3.03840931016824E-13   2.75243099075012E-15   1.06946831266621E-15  -2.95543877275069E-20
     -1.87181927592843E-15  -9.43705921335961E-17   1.06855426009985E-15  -2.95559115392826E-20  -1.51920465508412E-13
      9.44001480448585E-17
      1.00000000000000E+04
      8.00000000000000E-01   0.00000000000000E+00  -6.77174759945130E-01   9.11522793050471E-13   2.83683983887449E-15
     -6.71323993787904E-15  -2.75223412790240E-15  -1.56749225739206E-15  -8.46057109731565E-17  -6.71587712598995E-15
     -2.75223412952949E-15   3.03840931016824E-13   2.75232007018987E-15   9.59070739417011E-16  -8.59406602005845E-20
     -1.56759365334652E-15  -8.46057093460659E-17   9.59169324015468E-16  -8.59422872926934E-20   1.51920465508412E-13
      8.46916516333434E-17
      1.00000000000000E+04
      8.00000000000000E-01   0.00000000000000E+00  -1.17717475994513E+00  -1.21536372406729E-12   2.82610981051769E-15
     -6.60136453196505E-15  -2.75143096398813E-15  -1.28474709825875E-15  -7.46788465306877E-17  -6.59887313958897E-15
     -2.75143096573997E-15  -1.21536372406729E-12   2.75176254454657E-15   8.46672599505021E-16  -3.31578806141718E-19
     -1.28870402169124E-15  -7.46788447788377E-17   8.50632295125065E-16  -3.31580557990898E-19   3.03840931016824E-13
      7.50104253365999E-17
      1.00000000000000E+04
      8.00000000000000E-01   0.00000000000000E+00  -1.67717475994513E+00   9.11522793050471E-13   2.81639919089811E-15
     -6.50487876239679E-15  -2.74879391594927E-15  -1.09320677764827E-15  -6.76052749497162E-17  -6.49257404150761E-15
     -2.74879391786531E-15  -7.59602327542059E-13   2.74982308236763E-15   7.64617152426027E-16  -1.02916450349650E-18
     -1.10755433615288E-15  -6.76052730336762E-17   7.78964240793876E-16  -1.02916641953814E-18  -1.51920465508412E-13
      6.86344394526944E-17
      1.00000000000000E+04
      8.00000000000000E-01   0.00000000000000E+00  -2.17717475994513E+00   4.55761396525235E-13   2.80380606320704E-15
     -6.34277672249877E-15  -2.74176577066406E-15  -9.42079144242560E-16  -6.20402925440869E-17  -6.30871953642654E-15
     -2.74176577282618E-15  -4.55761396525235E-13   2.74433805482991E-15   6.93166322143921E-16  -2.57228200417891E-18
     -9.77504211483461E-16  -6.20402903819890E-17   7.28597205028799E-16  -2.57228416627966E-18  -4.55761396525235E-13
      6.46125745486780E-17
      1.00000000000000E+04
      8.00000000000000E-01   0.00000000000000E+00  -2.67717475994513E+00   4.55761396525235E-13   2.78355899652453E-15
     -5.99333845405031E-15  -2.72673528919950E-15  -8.07031890116355E-16  -5.68237073253722E-17  -5.92914228693995E-15
     -2.72673529169330E-15  -3.03840931016824E-12   2.73199128222041E-15   6.12827952096980E-16  -5.25599052867186E-18
     -8.76790783739184E-16  -5.68237048315795E-17   6.82593248080722E-16  -5.25599302246824E-18   4.55761396525235E-13
      6.20796978544105E-17
      1.00000000000000E+04
      8.00000000000000E-01   0.00000000000000E+00  -3.17717475994513E+00   3.03840931016824E-13   2.75354203089973E-15
     -5.39391876109130E-15  -2.70199995195886E-15  -6.70232665503710E-16  -5.15420789414442E-17  -5.28512716420665E-15
     -2.70199995474793E-15  -1.82304558610094E-12   2.71092186283499E-15   5.18320241776338E-16  -8.92190808650727E-18
     -7.80914744482856E-16  -5.15420761523935E-17   6.29011797974420E-16  -8.92191087556123E-18   6.07681862033647E-13
      6.04639870271825E-17
      1.00000000000000E+04
      8.00000000000000E-01   0.00000000000000E+00  -3.67717475994513E+00  -1.51920465508412E-13   2.71842038089163E-15
     -4.66822871767325E-15  -2.67186074812153E-15  -5.40672352907580E-16  -4.65596327711871E-17  -4.53066002366805E-15
     -2.67186075099302E-15  -1.82304558610094E-12   2.68469916123311E-15   4.25378818486822E-16  -1.28384102397324E-17
     -6.79890748606520E-16  -4.65596298996801E-17   5.64599873655162E-16  -1.28384131112382E-17   0.00000000000000E+00
      5.93980430112443E-17
      1.00000000000000E+04
      8.00000000000000E-01   0.00000000000000E+00  -4.17717475994513E+00  -4.55761396525235E-13   2.68608034896663E-15
     -4.04094921158426E-15  -2.64362232566171E-15  -4.43120793016896E-16  -4.24580233055405E-17  -3.89369694162449E-15
     -2.64362232840782E-15  -1.82304558610094E-12   2.65984635586809E-15   3.53793627146103E-16  -1.62240274600769E-17
     -5.92696950857518E-16  -4.24580205594281E-17   5.03377239875311E-16  -1.62240302061899E-17  -1.51920465508412E-13
      5.86820507647645E-17
      1.00000000000000E+04
      8.00000000000000E-01   0.00000000000000E+00  -4.67717475994513E+00   9.11522793050471E-13   2.65958084300866E-15
     -3.57530492922776E-15  -2.62028651144442E-15  -3.74823046029212E-16  -3.92943315649514E-17  -3.43755624757535E-15
     -2.62028651389583E-15   9.11522793050471E-13   2.63917668744853E-15   3.04486768923545E-16  -1.88901735536503E-17
     -5.13575110660875E-16  -3.92943291135888E-17   4.43239265659649E-16  -1.88901760050167E-17   1.51920465508412E-13
      5.81845051171975E-17
      1.00000000000000E+04
      8.00000000000000E-01   0.00000000000000E+00  -5.17717475994513E+00   9.11522793050471E-13   2.63772717561602E-15
     -3.19976470647600E-15  -2.60094786175621E-15  -3.24316786271245E-16  -3.67793138604791E-17  -3.08756761920238E-15
     -2.60094786382305E-15  -2.12688651711777E-12   2.62198070713400E-15   2.68165494540441E-16  -2.10328433116111E-17
     -4.36113602988918E-16  -3.67793117936317E-17   3.79962558327994E-16  -2.10328453784577E-17   1.51920465508412E-13
      5.78121571715881E-17
      1.00000000000000E+04
      8.00000000000000E-01   0.00000000000000E+00  -5.67717475994513E+00   9.11522793050471E-13   2.61874270592198E-15
     -2.87768869183584E-15  -2.58409308267725E-15  -2.84317659202444E-16  -3.46496232454109E-17  -2.79574120173284E-15
     -2.58409308438576E-15   3.03840931016824E-13   2.60695364596712E-15   2.38725511156423E-16  -2.28605615798113E-17
     -3.65481164141761E-16  -3.46496215369508E-17   3.19907022475980E-16  -2.28605632882742E-17   6.07681862033647E-13
      5.75101848254894E-17
      1.00000000000000E+04
      8.00000000000000E-01   0.00000000000000E+00  -6.17717475994513E+00   4.55761396525235E-13   2.60143972879358E-15
     -2.60692800297287E-15  -2.56869362700208E-15  -2.52386353279381E-16  -3.27461017923504E-17  -2.54766367967215E-15
     -2.56869362845788E-15   0.00000000000000E+00   2.59319719731893E-15   2.14237271466091E-16  -2.45035688610495E-17
     -3.10513156865430E-16  -3.27461003365777E-17   2.72367987766889E-16  -2.45035703168252E-17   1.51920465508412E-13
      5.72496706533138E-17
      1.00000000000000E+04
      8.00000000000000E-01   0.00000000000000E+00  -6.67717475994513E+00   1.51920465508412E-13   2.58513621322538E-15
     -2.37819690267392E-15  -2.55415551492898E-15  -2.26293786407811E-16  -3.09806982969603E-17  -2.33499973476570E-15
     -2.55415551622302E-15  -2.12688651711777E-12   2.58019027221250E-15   1.93400368989903E-16  -2.60347559898914E-17
     -2.69967442286918E-16  -3.09806970028962E-17   2.37081260926864E-16  -2.60347572839533E-17  -1.51920465508412E-13
      5.70154542861892E-17
      1.00000000000000E+04
      8.00000000000000E-01   0.00000000000000E+00  -7.17717475994513E+00   4.55761396525235E-13   2.56943740590500E-15
     -2.18406990029011E-15  -2.54013373883595E-15  -2.04041240105447E-16  -2.93036670698332E-17  -2.14528328313571E-15
     -2.54013374002199E-15  -3.03840931016824E-13   2.56762931577566E-15   1.75116592298096E-16  -2.74955757534551E-17
     -2.38890608855662E-16  -2.93036658838125E-17   2.09959132738683E-16  -2.74955769394753E-17   4.55761396525235E-13
      5.67992428226817E-17
      1.00000000000000E+04
      8.00000000000000E-01   0.00000000000000E+00  -7.67717475994513E+00   3.03840931016824E-13   2.55409650378945E-15
     -2.00270314360362E-15  -2.52641146558758E-15  -1.84385790079789E-16  -2.76850382022898E-17  -1.97773539517001E-15
     -2.52641146669547E-15   3.03840931016824E-13   2.55532265360383E-15   1.58683431932648E-16  -2.89111869082235E-17
     -2.13691840221239E-16  -2.76850370943645E-17   1.87984480809724E-16  -2.89111880161484E-17   4.55761396525235E-13
      5.65962251103748E-17
      1.00000000000000E+04
      8.00000000000000E-01   0.00000000000000E+00  -8.17717475994513E+00   3.03840931016824E-13   2.53893774056864E-15
     -1.84415040892215E-15  -2.51283273622695E-15  -1.66650137435227E-16  -2.61050043422653E-17  -1.81925560459913E-15
     -2.51283273727464E-15  -6.07681862033647E-13   2.54313115659828E-15   1.43682693959096E-16  -3.02984193246271E-17
     -1.92392108650060E-16  -2.61050032945773E-17   1.69418651158116E-16  -3.02984203723162E-17  -1.51920465508412E-13
      5.64034236664432E-17
      1.00000000000000E+04
      8.00000000000000E-01   0.00000000000000E+00  -8.67717475994513E+00   1.36728418957571E-12   2.52381015582038E-15
     -1.69722400786462E-15  -2.49926156461824E-15  -1.50456825394683E-16  -2.45485912026774E-17  -1.67460967082028E-15
     -2.49926156561744E-15  -1.36728418957571E-12   2.53093181862208E-15   1.29836631872305E-16  -3.16702530051515E-17
     -1.73896218485738E-16  -2.45485902034975E-17   1.53287544081683E-16  -3.16702540043329E-17   3.03840931016824E-13
      5.62188442067101E-17
      1.00000000000000E+04
      8.00000000000000E-01   0.00000000000000E+00  -9.17717475994513E+00   6.07681862033647E-13   2.50855250568137E-15
     -1.55961564717308E-15  -2.48555040410207E-15  -1.35553440946177E-16  -2.30021015802737E-17  -1.53957237902067E-15
     -2.48555040506117E-15  -1.51920465508412E-13   2.51858928015142E-15   1.16918362970069E-16  -3.30388750895200E-17
     -1.57572530959654E-16  -2.30021006211804E-17   1.38914217656112E-16  -3.30388760486137E-17  -4.55761396525235E-13
      5.60409766693908E-17
      1.00000000000000E+04
      8.00000000000000E-01   0.00000000000000E+00  -9.67717475994513E+00  -6.07681862033647E-13   2.49295772250915E-15
     -1.43096828551681E-15  -2.47150769110109E-15  -1.21677726137051E-16  -2.14500314087218E-17  -1.40990516196993E-15
     -2.47150769202581E-15   1.21536372406729E-12   2.50592610161159E-15   1.04666723675533E-16  -3.44184095843437E-17
     -1.42702830800484E-16  -2.14500304840144E-17   1.25688630932702E-16  -3.44184105090516E-17  -1.51920465508412E-13
      5.58684409927059E-17
      1.00000000000000E+04
      8.00000000000000E-01   0.00000000000000E+00  -1.01771747599451E+01   0.00000000000000E+00   2.47672844436307E-15
     -1.30496892448703E-15  -2.45685672411983E-15  -1.08494808206577E-16  -1.98717202438038E-17  -1.28431661204666E-15
     -2.45685672501258E-15   6.07681862033647E-13   2.49268468782975E-15   9.26345153565403E-17  -3.58279628174459E-17
     -1.28324615710599E-16  -1.98717193510754E-17   1.12455602631782E-16  -3.58279637101757E-17  -6.07681862033647E-13
      5.56996830604484E-17
      1.00000000000000E+04
      8.00000000000000E-01   0.00000000000000E+00  -1.06771747599451E+01   1.51920465508412E-13   2.45941695937215E-15
     -1.17994177780509E-15  -2.44117960250547E-15  -9.56421026168321E-17  -1.82373568675290E-17  -1.16056940920945E-15
     -2.44117960336366E-15  -1.82304558610094E-12   2.47847493360490E-15   7.97592746751848E-17  -3.72953302409685E-17
     -1.13037363243482E-16  -1.82373560093362E-17   9.71641728192408E-17  -3.72953310991612E-17   0.00000000000000E+00
      5.55326871082240E-17
      1.00000000000000E+04
      8.00000000000000E-01   0.00000000000000E+00  -1.11771747599451E+01  -3.03840931016824E-13   2.44035285887329E-15
     -1.04430258990773E-15  -2.42384894201865E-15  -8.25812522791870E-17  -1.65039168550898E-17  -1.03344940817514E-15
     -2.42384894282537E-15  -2.27880698262618E-12   2.46270978775893E-15   6.30017419662483E-17  -3.88608449329813E-17
     -9.28989890015476E-17  -1.65039160484004E-17   7.33367459632726E-17  -3.88608457396719E-17   1.51920465508412E-13
      5.53647617867837E-17
      1.00000000000000E+04
      8.00000000000000E-01   0.00000000000000E+00  -1.16771747599451E+01  -4.55761396525235E-13   2.41861311705057E-15
     -8.94894457913512E-16  -2.40399753217522E-15  -6.85539336025682E-17  -1.46155848758900E-17  -9.05592010508275E-16
     -2.40399753287374E-15  -1.51920465508412E-13   2.44457470570284E-15   3.27326676434676E-17  -4.05771728294229E-17
     -5.66402779873692E-17  -1.46155841773577E-17   2.08254529503084E-17  -4.05771735279549E-17  -1.51920465508412E-13
      5.51927577046313E-17
      1.00000000000000E+04
      8.00000000000000E-01   0.00000000000000E+00  -1.21771747599451E+01  -3.03840931016824E-13   2.39327534488978E-15
     -7.16421503235049E-16  -2.38074913210611E-15  -5.29066551218827E-17  -1.25262127840504E-17  -7.94926576170124E-16
     -2.38074913254273E-15   3.03840931016824E-13   2.42323787699515E-15  -4.31978181048939E-17  -4.24887444520296E-17
      2.56739245496774E-17  -1.25262123474278E-17  -1.21757164688638E-16  -4.24887448886522E-17   3.03840931016824E-13
      5.50149572353326E-17
      1.00000000000000E+04
      8.00000000000000E-01   0.00000000000000E+00  -1.26771747599451E+01   3.03840931016824E-13   2.36454962349667E-15
     -5.15076265309560E-16  -2.35426724172620E-15  -3.60783807177976E-17  -1.02823817705143E-17  -7.82525287014316E-16
     -2.35426724153997E-15  -2.73456837915141E-12   2.39882187581557E-15  -2.73630636275763E-16  -4.45546342757649E-17
      2.29681317286343E-16  -1.02823819567488E-17  -5.39392929812945E-16  -4.45546340895312E-17  -3.03840931016824E-13
      5.48370160456028E-17
      1.00000000000000E+04
      8.00000000000000E-01   0.00000000000000E+00  -1.31771747599451E+01   4.55761396525235E-13   2.33579245870698E-15
     -3.24833739230697E-16  -2.32764101318120E-15  -2.09208078517692E-17  -8.15144552622076E-18  -1.09422412566220E-15
     -2.32764101160505E-15  -1.82304558610094E-12   2.37416921312570E-15  -1.02574430488898E-15  -4.65282015223342E-17
      7.45204880461782E-16  -8.15144710235948E-18  -1.79187992462673E-15  -4.65281999461958E-17   7.59602327542059E-13
      5.46796470482612E-17
      1.00000000000000E+04
      8.00000000000000E-01   0.00000000000000E+00  -1.36771747599451E+01  -1.51920465508412E-13   2.31278373835285E-15
     -1.95961876415062E-16  -2.30625171116259E-15  -1.09178237691613E-17  -6.53202719045871E-18  -2.31828334018478E-15
     -2.30625170640581E-15  -1.51920465508412E-13   2.35428904744586E-15  -3.50548292751328E-15  -4.80373410405827E-17
      2.10867504353750E-15  -6.53203194722641E-18  -5.62509152391738E-15  -4.80373362838152E-17  -1.51920465508412E-13
      5.45693682307862E-17
      1.00000000000000E+04
      8.00000000000000E-01   0.00000000000000E+00  -1.41771747599451E+01   0.00000000000000E+00   2.29824395655796E-15
     -1.33553283721593E-16  -2.29268052014232E-15  -6.04002339786895E-18  -5.56343641568922E-18  -6.12765177802596E-15
     -2.29268050712395E-15  -3.03840931016824E-13   2.34162823395119E-15  -1.15071633140749E-14  -4.89477268273825E-17
      5.98649624024696E-15  -5.56344943404524E-18  -1.74997046423004E-14  -4.89477138090266E-17   1.51920465508412E-13
      5.45111632421460E-17
      1.00000000000000E+04
      8.00000000000000E-01   0.00000000000000E+00  -1.46771747599451E+01   1.51920465508412E-13   2.29025642698008E-15
     -1.08292088951549E-16  -2.28519159483495E-15  -3.86244732573128E-18  -5.06483214543899E-18  -1.75375324742270E-14
     -2.28519155847577E-15  -9.11522793050471E-13   2.33461504373279E-15  -3.64634309441150E-14  -4.94234852573793E-17
      1.74261958810618E-14  -5.06486850461762E-18  -5.38934906218756E-14  -4.94234488982007E-17   4.55761396525235E-13
      5.44883174018652E-17
      1.00000000000000E+04
      8.00000000000000E-01   0.00000000000000E+00  -1.51771747599451E+01  -3.03840931016824E-13   2.28592165232040E-15
     -9.55873907837376E-17  -2.28110704577209E-15  -2.60502033655547E-18  -4.81460654867621E-18  -5.10649783766302E-14
     -2.28110694284402E-15   5.01337536177759E-12   2.33077596073587E-15  -1.11432271619037E-13  -4.96690178909007E-17
      5.09662759784177E-14  -4.81470947674588E-18  -1.62401147200684E-13  -4.96689149628310E-17   4.55761396525235E-13
      5.44836244400263E-17
      1.00000000000000E+04
      8.00000000000000E-01   0.00000000000000E+00  -1.56771747599451E+01   9.11522793050471E-13   2.28336734444217E-15
     -8.49949854237611E-17  -2.27868825067335E-15  -1.47633209912312E-18  -4.67909376859940E-18  -1.46802397826311E-13
     -2.27868796220611E-15   3.49417070669347E-12   2.32849616231957E-15  -3.28068923486190E-13  -4.98082001131887E-17
      1.46713650951073E-13  -4.67938223582958E-18  -4.74784048502382E-13  -4.98079116459585E-17   4.55761396525235E-13
      5.44872938820146E-17
      1.00000000000000E+04
      8.00000000000000E-01   0.00000000000000E+00  -1.61771747599451E+01   9.11522793050471E-13   2.28166350916236E-15
     -8.12802845366005E-17  -2.27706851737459E-15  -7.73279457184426E-20  -4.59499178792010E-18  -4.10794078733740E-13
     -2.27706772883956E-15   4.10185256872712E-12   2.32696738175354E-15  -9.29631342277230E-13  -4.98996529137744E-17
      4.10714023469941E-13  -4.59578032294882E-18  -1.34034543437393E-12  -4.98988643787456E-17   4.55761396525235E-13
      5.44946447020429E-17
      1.00000000000000E+04
      8.00000000000000E-01   0.00000000000000E+00  -1.66771747599451E+01   9.11522793050471E-13   2.28038372676046E-15
     -7.50408459310120E-17  -2.27584927876895E-15   2.04142146767044E-18  -4.53444799191863E-18  -1.11121037383226E-12
     -2.27584719246559E-15   6.38065955135330E-12   2.32581573289720E-15  -2.53292768929119E-12  -4.99685404311526E-17
      1.11113707510542E-12  -4.53653429526417E-18  -3.64406272735693E-12  -4.99664541278070E-17   2.43072744813459E-12
      5.45029884220119E-17
      1.00000000000000E+04
      8.00000000000000E-01   0.00000000000000E+00  -1.71771747599451E+01  -4.55761396525235E-13   2.27933285154975E-15
     -7.37538106189959E-17  -2.27484773508503E-15   5.79700973089317E-18  -4.48511646504185E-18  -2.89483303515617E-12
     -2.27484241463240E-15   1.18497963096561E-11   2.32486671960180E-15  -6.62833137889169E-12  -5.00243049682200E-17
      2.89476567055852E-12  -4.49043691767207E-18  -9.52309126854960E-12  -5.00189845155899E-17   6.68450048237012E-12
      5.45094214339024E-17
      1.00000000000000E+04
      8.00000000000000E-01   0.00000000000000E+00  -1.76771747599451E+01  -1.51920465508412E-13   2.27841848708953E-15
     -7.79584902702903E-17  -2.27397736723045E-15   1.31318466569754E-17  -4.44111985910947E-18  -7.24403489193430E-12
     -2.27396432723938E-15   2.50668768088879E-11   2.32403187996916E-15  -1.66352432742112E-11  -5.00675527296318E-17
      7.24396906681338E-12  -4.45415985017315E-18  -2.38791992157502E-11  -5.00545127385683E-17   1.64074102749085E-11
      5.45086725886938E-17
      1.00000000000000E+04
      8.00000000000000E-01   0.00000000000000E+00  -1.81771747599451E+01   0.00000000000000E+00   2.27759464717666E-15
     -9.25087897387519E-17  -2.27319553278947E-15   2.76234130618465E-17  -4.39911438763013E-18  -1.73704385935212E-11
     -2.27316490075270E-15   5.97047429448058E-11   2.32325574785295E-15  -3.99636520408626E-11  -5.00908471006723E-17
      1.73703697342469E-11  -4.42974642439079E-18  -5.73339941791896E-11  -5.00602150639119E-17   4.01070028942207E-11
      5.44899614880895E-17
      1.00000000000000E+04
      8.00000000000000E-01   0.00000000000000E+00  -1.86771747599451E+01   3.03840931016824E-13   2.27683728667887E-15
     -1.28129648737797E-16  -2.27248084403949E-15   5.43298946632546E-17  -4.35644264008387E-18  -3.97988885845760E-11
     -2.27241210224448E-15   1.37184180354096E-10   2.32248766532398E-15  -9.16566778752509E-11  -5.00755630788161E-17
      3.97988116188254E-11  -4.42518443508453E-18  -1.31455435169674E-10  -5.00068212838155E-17   9.23676430291144E-11
      5.44320057187403E-17
      1.00000000000000E+04
      8.00000000000000E-01   0.00000000000000E+00  -1.91771747599451E+01   3.03840931016824E-13   2.27613354919743E-15
     -1.88620854179777E-16  -2.27182345409212E-15   9.65676300220217E-17  -4.31009510579942E-18  -8.68026993967718E-11
     -2.27167672765448E-15   2.86977759345390E-10   2.32166268211872E-15  -1.99952884827648E-10  -4.99859544635924E-17
      8.68026052831458E-11  -4.45682154342436E-18  -2.86755393536649E-10  -4.98392280259677E-17   1.99927332609070E-10
      5.42960495697861E-17
      1.00000000000000E+04
      8.00000000000000E-01   0.00000000000000E+00  -1.96771747599451E+01  -1.51920465508412E-13   2.27547695979546E-15
     -2.66199600088271E-16  -2.27122089344877E-15   1.48229499675192E-16  -4.25606634703290E-18  -1.79325713789563E-10
     -2.27092477313051E-15   5.91730213155264E-10   2.32068781251628E-15  -4.12850423948889E-10  -4.97630393839962E-17
      1.79325596260351E-10  -4.55218666529267E-18  -5.92175871988001E-10  -4.94669190657360E-17   4.13071745717372E-10
      5.40191057306465E-17
      1.00000000000000E+04
      8.00000000000000E-01   0.00000000000000E+00  -2.01771747599451E+01   7.59602327542059E-13   2.27486511865222E-15
     -3.28180484705602E-16  -2.27067590730599E-15   1.90593921663677E-16  -4.18921134671093E-18  -3.48753416217446E-10
     -2.27011504638991E-15   1.15322825367435E-09   2.31944013421115E-15  -8.01768410773571E-10  -4.93250878206020E-17
      3.48753279242949E-10  -4.75007226278809E-18  -1.15052149941609E-09  -4.87642269045251E-17   8.01684296487889E-10
      5.35142991676815E-17
      1.00000000000000E+04
      8.00000000000000E-01   0.00000000000000E+00  -2.06771747599451E+01   1.51920465508412E-12   2.27429817073100E-15
     -3.53591690387145E-16  -2.27019414740008E-15   2.07196491825476E-16  -4.10402333102936E-18  -6.34250046519324E-10
     -2.26920530306996E-15   2.08966600306820E-09   2.31779086868514E-15  -1.45465087898728E-09  -4.85855656150390E-17
      6.34249897851200E-10  -5.09286766114148E-18  -2.08890056963064E-09  -4.75967212849276E-17   1.45509421863957E-09
      5.26895889459509E-17
      1.00000000000000E+04
      8.00000000000000E-01   0.00000000000000E+00  -2.11771747599451E+01   3.03840931016824E-13   2.27377716260083E-15
     -3.47841281141704E-16  -2.26978059758323E-15   1.99689067082320E-16  -3.99656501774486E-18  -1.07265055584769E-09
     -2.26816865216286E-15   3.52470672026066E-09   2.31566220295639E-15  -2.45180271678549E-09  -4.74935507939278E-17
      1.07265040611622E-09  -5.60851043810459E-18  -3.52445292322707E-09  -4.58816053735676E-17   2.45123671097822E-09
      5.14901158112605E-17
      1.00000000000000E+04
      8.00000000000000E-01   0.00000000000000E+00  -2.16771747599451E+01   4.55761396525235E-13   2.27330222165302E-15
     -3.22201526749745E-16  -2.26943543663352E-15   1.79528279194222E-16  -3.86678501966538E-18  -1.68315301795467E-09
     -2.26701232749642E-15   5.51456097748984E-09   2.31309016162834E-15  -3.83040163843919E-09  -4.60778341328622E-17
      1.68315287288093E-09  -6.28989415675135E-18  -5.51355433181694E-09  -4.36547249957756E-17   3.83097837872562E-09
      4.99446191524890E-17
      1.00000000000000E+04
      8.00000000000000E-01   0.00000000000000E+00  -2.21771747599451E+01   9.11522793050471E-13   2.27287128206606E-15
     -2.95934562647647E-16  -2.26915183018722E-15   1.55332022814478E-16  -3.71945187927156E-18  -2.45656710612645E-09
     -2.26578197583131E-15   8.01593144208584E-09   2.31023719216222E-15  -5.56097378557651E-09  -4.44552163312416E-17
      2.45656696772382E-09  -7.08930623518794E-18  -8.01754059799103E-09  -4.10853619753241E-17   5.56120056040092E-09
      4.81746682096253E-17
      1.00000000000000E+04
      8.00000000000000E-01   0.00000000000000E+00  -2.26771747599451E+01   7.59602327542059E-13   2.27248006187953E-15
     -2.62817578675372E-16  -2.26891741183238E-15   1.32313847618199E-16  -3.56265004786265E-18  -3.35812639725462E-09
     -2.26454379593509E-15   1.09150296853829E-08   2.30733033440373E-15  -7.55628475050101E-09  -4.27865384655985E-17
      3.35812626738751E-09  -7.93626594515282E-18  -1.09144108855584E-08  -3.84129225683149E-17   7.55622011345739E-09
      4.63491885134238E-17
      1.00000000000000E+04
      8.00000000000000E-01   0.00000000000000E+00  -2.31771747599451E+01   0.00000000000000E+00   2.27212307290200E-15
     -2.35539556671480E-16  -2.26871816419339E-15   1.13422344531603E-16  -3.40490870881761E-18  -4.34143747847962E-09
     -2.26335817926477E-15   1.40494527297524E-08   2.30457257624375E-15  -9.70554592827596E-09  -4.12143969787529E-17
      4.34143735364528E-09  -8.76489363743028E-18  -1.40469831684763E-08  -3.58544120501475E-17   9.70543893900489E-09
      4.46193056869911E-17
      1.00000000000000E+04
      8.00000000000000E-01   0.00000000000000E+00  -2.36771747599451E+01  -1.51920465508412E-13   2.27179478886015E-15
     -2.17558413868517E-16  -2.26854184769545E-15   9.91226305429076E-17  -3.25294116492681E-18  -5.36291184833040E-09
     -2.26226363081111E-15   1.72719896441168E-08   2.30209049064141E-15  -1.19082113466001E-08  -3.98268598306456E-17
      5.36291172812592E-09  -9.53115804926073E-18  -1.72711229756189E-08  -3.35486429463118E-17   1.19084376093424E-08
      4.30798009959065E-17
      1.00000000000000E+04
      8.00000000000000E-01   0.00000000000000E+00  -2.41771747599451E+01   6.07681862033647E-13   2.27149036138090E-15
     -2.03084059499482E-16  -2.26837948306425E-15   8.82974131299068E-17  -3.11087831674128E-18  -6.38947880016169E-09
     -2.26127561851831E-15   2.04813094779820E-08   2.29993242993393E-15  -1.40909328634423E-08  -3.86568114152691E-17
      6.38947868485590E-09  -1.02147428626873E-17  -2.04804114600037E-08  -3.15529468693239E-17   1.40910789373017E-08
      4.17676897311855E-17
      1.00000000000000E+04
      8.00000000000000E-01   0.00000000000000E+00  -2.46771747599451E+01   1.51920465508412E-13   2.27120583773369E-15
     -1.92578343900101E-16  -2.26822523749137E-15   7.95759402020830E-17  -2.98060024269200E-18  -7.39967232691515E-09
     -2.26039344191979E-15   2.36098076241968E-08   2.29809300581245E-15  -1.62087669663673E-08  -3.76995638929318E-17
      7.39967221149084E-09  -1.08123958142564E-17  -2.36084390982849E-08  -2.98677683213721E-17   1.62082425446269E-08
      4.06801641351481E-17
      1.00000000000000E+04
      8.00000000000000E-01   0.00000000000000E+00  -2.51771747599451E+01   3.03840931016824E-13   2.27093809421165E-15
     -1.82654035317207E-16  -2.26807564411948E-15   7.20102503138554E-17  -2.86245009266190E-18  -8.38136482740912E-09
     -2.25960790225627E-15   2.66219346938321E-08   2.29653942286238E-15  -1.82388461025436E-08  -3.69315206055962E-17
      8.38136471631180E-09  -1.13301919558774E-17  -2.66202107468728E-08  -2.84637787423809E-17   1.82391153275434E-08
      3.97939706975369E-17
      1.00000000000000E+04
      8.00000000000000E-01   0.00000000000000E+00  -2.56771747599451E+01  -1.51920465508412E-13   2.27068467550388E-15
     -1.74259894665993E-16  -2.26792878554484E-15   6.51420215619933E-17  -2.75588995918402E-18  -9.32880728267255E-09
     -2.25890671309706E-15   2.94994602310269E-08   2.29522966790196E-15  -2.01728594615546E-08  -3.63229548044930E-17
      9.32880717313295E-09  -1.17779624069646E-17  -2.95016665695597E-08  -2.73008823567128E-17   2.01726070920690E-08
      3.90788447633873E-17
      1.00000000000000E+04
      8.00000000000000E-01   0.00000000000000E+00  -2.61771747599451E+01  -1.51920465508412E-13   2.27044363556277E-15
     -1.63732276633063E-16  -2.26778367456608E-15   5.88284969992919E-17  -2.65996099694802E-18  -1.02401697171949E-08
     -2.25827748639604E-15   3.22519552251083E-08   2.29412231598114E-15  -2.20110400374154E-08  -3.58448295842320E-17
      1.02401696112989E-08  -1.21661491669912E-17  -3.22512095898794E-08  -2.63386414141960E-17   2.20105408837897E-08
      3.85047905810287E-17
      1.00000000000000E+04