DF-ISE text

Info {
  version   = 1.0
  type      = xyplot
  datasets  = [
    "frequency"
    "v(Ntop)" "v(Ptop)" "v(Pbot)" "a(Ntop,Ntop)" "c(Ntop,Ntop)"
    "a(Ntop,Ptop)" "c(Ntop,Ptop)" "a(Ntop,Pbot)" "c(Ntop,Pbot)" "a(Ptop,Ntop)"
    "c(Ptop,Ntop)" "a(Ptop,Ptop)" "c(Ptop,Ptop)" "a(Ptop,Pbot)" "c(Ptop,Pbot)"
    "a(Pbot,Ntop)" "c(Pbot,Ntop)" "a(Pbot,Ptop)" "c(Pbot,Ptop)" "a(Pbot,Pbot)"
    "c(Pbot,Pbot)" ]
  functions = [
    Frequency
    Voltage Voltage Voltage Admittance Capacitance
    Admittance Capacitance Admittance Capacitance Admittance
    Capacitance Admittance Capacitance Admittance Capacitance
    Admittance Capacitance Admittance Capacitance Admittance
    Capacitance ]
}

Data {
      1.00000000000000E+04
      8.00000000000000E-01   0.00000000000000E+00  -5.00000000000000E-02  -6.07681862033647E-13   9.37627428791990E-16
     -2.18419364555078E-15  -8.32443874516506E-16  -1.34090337904652E-15  -1.05183554275734E-16  -2.18538461568421E-15
     -8.32443874759631E-16   7.59602327542059E-13   8.32457824331726E-16   4.31689247240855E-16  -1.39495712355070E-20
     -1.33947860477245E-15  -1.05183554032618E-16   4.30264962238903E-16  -1.39498143531653E-20  -1.51920465508412E-13
      1.05197503846874E-16
      1.00000000000000E+04
      8.00000000000000E-01   0.00000000000000E+00  -1.45555555555556E-01  -6.07681862033647E-13   9.33481269001315E-16
     -2.16740260414259E-15  -8.32428648144086E-16  -1.23596073994034E-15  -1.01052620857416E-16  -2.16876616618175E-15
     -8.32428648412437E-16  -3.03840931016824E-13   8.32448129980572E-16   4.14822817787780E-16  -1.94815670617302E-20
     -1.23466503978711E-15  -1.01052620589067E-16   4.13525520122944E-16  -1.94818354103980E-20   0.00000000000000E+00
      1.01072102424379E-16
      1.00000000000000E+04
      8.00000000000000E-01   0.00000000000000E+00  -3.28172839506173E-01  -4.55761396525235E-13   9.26743542266232E-16
     -2.14105872482514E-15  -8.32382275163482E-16  -1.07529141970991E-15  -9.43612671028832E-17  -2.14216582258310E-15
     -8.32382275473639E-16   7.59602327542059E-13   8.32418048713360E-16   3.87568406552276E-16  -3.57732385860171E-20
     -1.07432360702991E-15  -9.43612667927278E-17   3.86602035024273E-16  -3.57735487428856E-20   3.03840931016824E-13
      9.43970403415956E-17
      1.00000000000000E+04
      8.00000000000000E-01   0.00000000000000E+00  -6.77174759945130E-01  -4.55761396525235E-13   9.16754805923840E-16
     -2.10588409866232E-15  -8.32175425316833E-16  -8.63629648891724E-16  -8.45793806071458E-17  -2.10554832164430E-15
     -8.32175425691989E-16  -1.82304558610094E-12   8.32279554367827E-16   3.48033146931151E-16  -1.04128675918954E-19
     -8.63836275729560E-16  -8.45793802319996E-17   3.48239874929048E-16  -1.04129051066551E-19   0.00000000000000E+00
      8.46835092823780E-17
      1.00000000000000E+04
      8.00000000000000E-01   0.00000000000000E+00  -1.17717475994513E+00  -4.55761396525235E-13   9.05757914356612E-16
     -2.08234745246426E-15  -8.31177602921229E-16  -6.74301868288220E-16  -7.45803114355692E-17  -2.07753844097815E-15
     -8.31177603387465E-16   6.07681862033647E-13   8.31580704663156E-16   3.08398252761241E-16  -4.03101275096451E-19
     -6.79144370909260E-16  -7.45803109693498E-17   3.13244999235743E-16  -4.03101741318992E-19  -1.51920465508412E-13
      7.49834127102857E-17
      1.00000000000000E+04
      8.00000000000000E-01   0.00000000000000E+00  -1.67717475994513E+00   1.51920465508412E-13   8.95170529617113E-16
     -2.08505306916681E-15  -8.27865888633684E-16  -5.49474771484750E-16  -6.73046409835405E-17  -2.06731825388859E-15
     -8.27865889248734E-16  -1.06344325855888E-12   8.29126402582669E-16   2.79740097420972E-16  -1.26051333396214E-18
     -5.67093761965442E-16  -6.73046403685039E-17   2.97364467328916E-16  -1.26051394900084E-18  -1.51920465508412E-13
      6.85651543168898E-17
      1.00000000000000E+04
      8.00000000000000E-01   0.00000000000000E+00  -2.17717475994513E+00   0.00000000000000E+00   8.80185123023715E-16
     -2.07462846264681E-15  -8.18899485059392E-16  -4.51960356873822E-16  -6.12856379644801E-17  -2.03084818487134E-15
     -8.18899485939343E-16  -1.97496605160935E-12   8.22085515114614E-16   2.52193997872982E-16  -3.18602917544906E-18
     -4.96220940497885E-16  -6.12856370845407E-17   2.96451059715271E-16  -3.18603005538969E-18   0.00000000000000E+00
      6.44716671397689E-17
      1.00000000000000E+04
      8.00000000000000E-01   0.00000000000000E+00  -2.67717475994513E+00  -9.11522793050471E-13   8.54856668875513E-16
     -1.95989791334971E-15  -7.99574730339561E-16  -3.66482186533653E-16  -5.52819385361677E-17  -1.87145514863211E-15
     -7.99574731618489E-16  -1.51920465508412E-13   8.06141244778932E-16   2.13759866953263E-16  -6.56651315990226E-18
     -4.54878823331973E-16  -5.52819372572397E-17   3.02159054738072E-16  -6.56651443883019E-18  -3.03840931016824E-13
      6.18484516950188E-17
      1.00000000000000E+04
      8.00000000000000E-01   0.00000000000000E+00  -3.17717475994513E+00  -4.55761396525235E-13   8.17714824832880E-16
     -1.67571732452144E-15  -7.68650214028216E-16  -2.79341681439807E-16  -4.90646108048556E-17  -1.53614473194103E-15
     -7.68650215683183E-16  -1.97496605160935E-12   7.79737753823130E-16   1.62539248987555E-16  -1.10875381393744E-17
     -4.19099414912259E-16  -4.90646091498983E-17   3.02298457346615E-16  -1.10875397943327E-17  -4.55761396525235E-13
      6.01521489431908E-17
      1.00000000000000E+04
      8.00000000000000E-01   0.00000000000000E+00  -3.67717475994513E+00  -6.07681862033647E-13   7.77337571751382E-16
     -1.33192940203740E-15  -7.33879789077197E-16  -2.00365657028597E-16  -4.34577826743898E-17  -1.16092214009364E-15
     -7.33879790847240E-16  -2.27880698262618E-12   7.49472374126161E-16   1.14947654970352E-16  -1.55925832782446E-17
     -3.71321078850614E-16  -4.34577809043541E-17   2.85912246268716E-16  -1.55925850482808E-17  -1.51920465508412E-13
      5.90503659521197E-17
      1.00000000000000E+04
      8.00000000000000E-01   0.00000000000000E+00  -4.17717475994513E+00  -3.03840931016824E-13   7.43660978063747E-16
     -1.07936966005698E-15  -7.04471395714530E-16  -1.47942809289657E-16  -3.91895823493749E-17  -9.05937173512787E-16
     -7.04471397322473E-16  -7.59602327542059E-13   7.23623692758594E-16   8.49302393036369E-17  -1.91522954353640E-17
     -3.21292347489451E-16  -3.91895807414317E-17   2.58281972710206E-16  -1.91522970433072E-17   0.00000000000000E+00
      5.83418777843624E-17
      1.00000000000000E+04
      8.00000000000000E-01   0.00000000000000E+00  -4.67717475994513E+00  -6.07681862033647E-13   7.18155404781100E-16
     -9.03653413380381E-16  -6.82060946117028E-16  -1.14317468901972E-16  -3.60944586642238E-17  -7.55671771653748E-16
     -6.82060947373206E-16  -1.06344325855888E-12   7.03833679249881E-16   6.79271433271405E-17  -2.17727318769944E-17
     -2.62327382347066E-16  -3.60944574080500E-17   2.15940786353793E-16  -2.17727331331685E-17   4.55761396525235E-13
      5.78671905413545E-17
      1.00000000000000E+04
      8.00000000000000E-01   0.00000000000000E+00  -5.17717475994513E+00  -1.06344325855888E-12   6.98184178577388E-16
     -7.50663742226686E-16  -6.64460903336373E-16  -9.00145527764742E-17  -3.37232752411575E-17  -6.42504675696826E-16
     -6.64460904197605E-16   1.51920465508412E-13   6.88256390937994E-16   5.58947188582447E-17  -2.37954867403792E-17
     -1.98532085685381E-16  -3.37232743799330E-17   1.64418766826438E-16  -2.37954876016043E-17  -1.51920465508412E-13
      5.75187619815641E-17
      1.00000000000000E+04
      8.00000000000000E-01   0.00000000000000E+00  -5.67717475994513E+00  -1.06344325855888E-12   6.81481814397169E-16
     -6.23342660056833E-16  -6.49716603071529E-16  -7.23044806185586E-17  -3.17652113257748E-17  -5.49904751446747E-16
     -6.49716603635309E-16  -6.07681862033647E-13   6.75190820457199E-16   4.65594703856754E-17  -2.54742168223051E-17
     -1.46033396438532E-16  -3.17652107619986E-17   1.20281483958639E-16  -2.54742173860818E-17  -1.51920465508412E-13
      5.72394281478486E-17
      1.00000000000000E+04
      8.00000000000000E-01   0.00000000000000E+00  -6.17717475994513E+00   4.55761396525235E-13   6.66746347509417E-16
     -5.31122014120158E-16  -6.36693829254121E-16  -6.01561484202367E-17  -3.00525182554288E-17  -4.80072073497532E-16
     -6.36693829643780E-16  -1.21536372406729E-12   6.63642252990395E-16   3.96541919570266E-17  -2.69484233461285E-17
     -1.11316968229233E-16  -3.00525178657708E-17   9.08206281611427E-17  -2.69484237357867E-17  -1.51920465508412E-13
      5.70009416008027E-17
      1.00000000000000E+04
      8.00000000000000E-01   0.00000000000000E+00  -6.67717475994513E+00   9.11522793050471E-13   6.53268111119564E-16
     -4.64776570911167E-16  -6.24771709680477E-16  -5.15769402359666E-17  -2.84964014391740E-17  -4.26655957799290E-16
     -6.24771709972565E-16  -1.51920465508412E-12   6.53064246673968E-16   3.44017912850336E-17  -2.82925367007541E-17
     -8.93171919691342E-17  -2.84964011470892E-17   7.21551579602801E-17  -2.82925369928391E-17   4.55761396525235E-13
      5.67889381390543E-17
      1.00000000000000E+04
      8.00000000000000E-01   0.00000000000000E+00  -7.17717475994513E+00  -4.55761396525235E-13   6.40638908896977E-16
     -4.13478264018316E-16  -6.13591791462362E-16  -4.50171007816245E-17  -2.70471174347313E-17  -3.83992760809487E-16
     -6.13591791696051E-16  -1.36728418957571E-12   6.43140299790859E-16   3.01482996807021E-17  -2.95485080942445E-17
     -7.46040017045707E-17  -2.70471172010429E-17   5.97366291429793E-17  -2.95485083279330E-17  -4.55761396525235E-13
      5.65956255287870E-17
      1.00000000000000E+04
      8.00000000000000E-01   0.00000000000000E+00  -7.67717475994513E+00   1.51920465508412E-13   6.28602266597126E-16
     -3.71947804072091E-16  -6.02927698950448E-16  -3.96281520814586E-17  -2.56745676468126E-17  -3.47642947844762E-16
     -6.02927699146084E-16   1.06344325855888E-12   6.33669604133913E-16   2.65235300376235E-17  -3.07419049869922E-17
     -6.40371082031777E-17  -2.56745674511786E-17   5.09281528368074E-17  -3.07419051826264E-17   4.55761396525235E-13
      5.64164726337750E-17
      1.00000000000000E+04
      8.00000000000000E-01   0.00000000000000E+00  -8.17717475994513E+00  -6.07681862033647E-13   6.16980759300797E-16
     -3.37047804488302E-16  -5.92621663783376E-16  -3.50005286057362E-17  -2.43590955175363E-17  -3.16034740654283E-16
     -5.92621663952372E-16  -3.03840931016824E-13   6.24511247955701E-16   2.33288242009493E-17  -3.18895840023951E-17
     -5.60178851299571E-17  -2.43590953485436E-17   4.43516293656687E-17  -3.18895841713882E-17   3.03840931016824E-13
      5.62486795196100E-17
      1.00000000000000E+04
      8.00000000000000E-01   0.00000000000000E+00  -8.67717475994513E+00   0.00000000000000E+00   6.05639046684648E-16
     -3.06277008010119E-16  -5.82552154344071E-16  -3.09518484216864E-17  -2.30868923406760E-17  -2.87723081820027E-16
     -5.82552154493334E-16  -7.59602327542059E-13   6.15555687428602E-16   2.04425339818242E-17  -3.30035329341685E-17
     -4.97384612692542E-17  -2.30868921914144E-17   3.92258269039939E-17  -3.30035330834303E-17   0.00000000000000E+00
      5.60904252741845E-17
      1.00000000000000E+04
      8.00000000000000E-01   0.00000000000000E+00  -9.17717475994513E+00   9.11522793050471E-13   5.94463008990888E-16
     -2.79009623256655E-16  -5.72615532055022E-16  -2.73854561926544E-17  -2.18474769359885E-17  -2.61916775152826E-16
     -5.72615532188754E-16  -1.21536372406729E-12   6.06708518257014E-16   1.77606997912459E-17  -3.40929860671328E-17
     -4.46459911101533E-17  -2.18474768022579E-17   3.50156057286865E-17  -3.40929862008635E-17   4.55761396525235E-13
      5.59404630026789E-17
      1.00000000000000E+04
      8.00000000000000E-01   0.00000000000000E+00  -9.67717475994513E+00  -1.51920465508412E-13   5.83346430905764E-16
     -2.54383768546736E-16  -5.62714253170408E-16  -2.41960373848635E-17  -2.06321777354690E-17  -2.38537346207715E-16
     -5.62714253290297E-16  -1.21536372406729E-12   5.97879959934020E-16   1.51122162212866E-17  -3.51657066432744E-17
     -4.00087911193879E-17  -2.06321776155815E-17   3.09235584609471E-17  -3.51657067631619E-17   3.03840931016824E-13
      5.57978843788320E-17
      1.00000000000000E+04
      8.00000000000000E-01   0.00000000000000E+00  -1.01771747599451E+01   0.00000000000000E+00   5.72181869226589E-16
     -2.31217074060672E-16  -5.52748662593233E-16  -2.13201940282425E-17  -1.94332066334758E-17  -2.17695419034471E-16
     -5.52748662697987E-16  -1.36728418957571E-12   5.88977440160106E-16   1.20170725670881E-17  -3.62287774616202E-17
     -3.48362957454503E-17  -1.94332065287236E-17   2.55375985559285E-17  -3.62287775663724E-17   0.00000000000000E+00
      5.56619840943825E-17
      1.00000000000000E+04
      8.00000000000000E-01   0.00000000000000E+00  -1.06771747599451E+01   0.00000000000000E+00   5.60855014970111E-16
     -2.09340475534506E-16  -5.42611801035920E-16  -1.87403088424342E-17  -1.82432139343099E-17  -2.01624927206583E-16
     -5.42611801117306E-16  -1.51920465508412E-13   5.79900784613942E-16   6.90240969228746E-18  -3.72889834953626E-17
     -2.66707657428186E-17  -1.82432138529247E-17   1.48144795110746E-17  -3.72889835767479E-17  -4.55761396525235E-13
      5.55321974291454E-17
      1.00000000000000E+04
      8.00000000000000E-01   0.00000000000000E+00  -1.11771747599451E+01  -1.51920465508412E-13   5.49243938784553E-16
     -1.88836879844202E-16  -5.32188544569931E-16  -1.63806694645092E-17  -1.70553942147359E-17  -1.97936512366384E-16
     -5.32188544598131E-16  -2.43072744813459E-12   5.70541253723769E-16  -5.55407978868084E-18  -3.83527091251379E-17
     -7.17337953903070E-18  -1.70553941865383E-17  -1.47601994213300E-17  -3.83527091533356E-17  -1.51920465508412E-13
      5.54081033397661E-17
      1.00000000000000E+04
      8.00000000000000E-01   0.00000000000000E+00  -1.16771747599451E+01  -6.07681862033647E-13   5.37227322634165E-16
     -1.68890404808836E-16  -5.21362920045406E-16  -1.41814409855556E-17  -1.58644025888689E-17  -2.31940849365901E-16
     -5.21362919927094E-16   6.07681862033647E-13   5.60788017564171E-16  -4.34515299387175E-17  -3.94250976362414E-17
      4.91032939155945E-17  -1.58644027071810E-17  -1.06728799549232E-16  -3.94250975179292E-17  -3.03840931016824E-13
      5.52895002248864E-17
      1.00000000000000E+04
      8.00000000000000E-01   0.00000000000000E+00  -1.21771747599451E+01  -1.51920465508412E-13   5.24709532472135E-16
     -1.48850172579430E-16  -5.10040983063118E-16  -1.21114584640200E-17  -1.46685494090992E-17  -3.80400504558544E-16
     -5.10040982519792E-16  -1.51920465508412E-13   5.50549005910975E-16  -1.67277512215408E-16  -4.05080233901089E-17
      2.19340512173890E-16  -1.46685499524264E-17  -3.98727856649344E-16  -4.05080228467817E-17   1.51920465508412E-13
      5.51765727984268E-17
      1.00000000000000E+04
      8.00000000000000E-01   0.00000000000000E+00  -1.26771747599451E+01  -1.51920465508412E-13   5.11673014935676E-16
     -1.29264917811192E-16  -4.98199264997214E-16  -1.01553630707627E-17  -1.34737499385621E-17  -8.71215283209214E-16
     -4.98199263224022E-16   7.59602327542059E-13   5.39795670340919E-16  -5.74715432867549E-16  -4.15964071165889E-17
      7.31623233242255E-16  -1.34737517117557E-17  -1.31650200648502E-15  -4.15964053433954E-17   1.51920465508412E-13
      5.50701570551313E-17
      1.00000000000000E+04
      8.00000000000000E-01   0.00000000000000E+00  -1.31771747599451E+01  -1.51920465508412E-13   4.98261264378942E-16
     -1.10273982663465E-16  -4.85962406721897E-16  -8.31957724750592E-18  -1.22988576571600E-17  -2.35944528325735E-15
     -4.85962401460381E-16  -1.06344325855888E-12   5.28635574629321E-16  -1.89647259359424E-15  -4.26731731687515E-17
      2.24087528136645E-15  -1.22988629186780E-17  -4.14565095671329E-15  -4.26731679072335E-17  -1.51920465508412E-13
      5.49720308249426E-17
      1.00000000000000E+04
      8.00000000000000E-01   0.00000000000000E+00  -1.36771747599451E+01   3.03840931016824E-13   4.84862646914851E-16
     -9.25627141043716E-17  -4.73683211181204E-16  -6.63713180620710E-18  -1.11794357337471E-17  -6.67755580946275E-15
     -4.73683196260332E-16  -3.03840931016824E-13   5.17388734498804E-16  -6.09029505728915E-15  -4.37055382392199E-17
      6.57829202325975E-15  -1.11794506546181E-17  -1.26752329262660E-14  -4.37055233183489E-17  -3.03840931016824E-13
      5.48849739728678E-17
      1.00000000000000E+04
      8.00000000000000E-01   0.00000000000000E+00  -1.41771747599451E+01   4.55761396525235E-13   4.72109870731630E-16
     -7.68024018152909E-17  -4.61946072082651E-16  -5.15047970511555E-18  -1.01637986490874E-17  -1.88403112738133E-14
     -4.61946030990140E-16   1.51920465508412E-12   5.06594423364918E-16  -1.90466171133166E-14  -4.46483923743785E-17
      1.87581174311237E-14  -1.01638397415982E-17  -3.78098692258423E-14  -4.46483512818675E-17   1.51920465508412E-13
      5.48121910242070E-17
      1.00000000000000E+04
      8.00000000000000E-01   0.00000000000000E+00  -1.46771747599451E+01  -6.07681862033647E-13   4.60709012794320E-16
     -6.42596213111815E-17  -4.51411695987544E-16  -3.87461082564330E-18  -9.29731680687195E-18  -5.23639683376413E-14
     -4.51411585188308E-16   2.88648884465982E-12   4.96870271166285E-16  -5.78819845514913E-14  -4.54586859784843E-17
      5.22959144626599E-14  -9.29742760610802E-18  -1.10181749352815E-13  -4.54585751792481E-17   3.03840931016824E-13
      5.47560027847731E-17
      1.00000000000000E+04
      8.00000000000000E-01   0.00000000000000E+00  -1.51771747599451E+01   3.03840931016824E-13   4.51158498867427E-16
     -5.46330752694249E-17  -4.42555715175877E-16  -2.75031380735492E-18  -8.60278369167130E-18  -1.43101153572094E-13
     -4.42555421354488E-16   5.62105722381124E-12   4.88669220112790E-16  -1.70482820657110E-13  -4.61137987561950E-17
      1.43043728033207E-13  -8.60307751306033E-18  -3.13529298444198E-13  -4.61135049348060E-17  -3.03840931016824E-13
      5.47165824478068E-17
      1.00000000000000E+04
      8.00000000000000E-01   0.00000000000000E+00  -1.56771747599451E+01  -6.07681862033647E-13   4.43575464967215E-16
     -4.83218560024643E-17  -4.35502643546437E-16  -1.61571533220300E-18  -8.07282142085761E-18  -3.84050796648274E-13
     -4.35501876737259E-16   3.94993210321871E-12   4.82120842794484E-16  -4.85517492866214E-13  -4.66189660575897E-17
      3.84001012123521E-13  -8.07358823003578E-18  -8.69520104803870E-13  -4.66181992484115E-17   7.59602327542059E-13
      5.46917874775597E-17
      1.00000000000000E+04
      8.00000000000000E-01   0.00000000000000E+00  -1.61771747599451E+01  -1.51920465508412E-13   4.37750899419438E-16
     -4.43474595239414E-17  -4.30071843295478E-16  -1.57867828976694E-19  -7.67905612406813E-18  -1.00917739010693E-12
     -4.30069879377263E-16   4.10185256872712E-12   4.77068841071596E-16  -1.33431890397152E-12  -4.69989616941355E-17
      1.00913284223240E-12  -7.68102004228329E-18  -2.34345189867804E-12  -4.69969977759203E-17   1.21536372406729E-12
      5.46780178183616E-17
      1.00000000000000E+04
      8.00000000000000E-01   0.00000000000000E+00  -1.66771747599451E+01  -9.11522793050471E-13   4.33327742702401E-16
     -4.34457406666666E-17  -4.25940667990567E-16   2.23078161627974E-18  -7.38707471190434E-18  -2.58541756493811E-12
     -4.25935754794233E-16   8.20370513745424E-12   4.73219653538706E-16  -3.53270320625662E-12  -4.72838987455307E-17
      2.58537658949746E-12  -7.39198790823933E-18  -6.11807756343587E-12  -4.72789855491956E-17   3.79801163771029E-12
      5.46709734576123E-17
      1.00000000000000E+04
      8.00000000000000E-01   0.00000000000000E+00  -1.71771747599451E+01  -6.07681862033647E-13   4.29948714409707E-16
     -4.68070519554215E-17  -4.22782311777785E-16   6.77425809655380E-18  -7.16640263200427E-18  -6.42878537722588E-12
     -4.22770365465769E-16   1.99015809816019E-11   4.70269337605961E-16  -8.99583219838314E-12  -4.74989721411887E-17
      6.42874522067953E-12  -7.17834894401906E-18  -1.54245706362051E-11  -4.74870258291739E-17   8.96330746499630E-12
      5.46653747737317E-17
      1.00000000000000E+04
      8.00000000000000E-01   0.00000000000000E+00  -1.76771747599451E+01   6.07681862033647E-13   4.27323348632243E-16
     -5.89750315277961E-17  -4.20329682682059E-16   1.58493818972573E-17  -6.99366595022426E-18  -1.54501063841743E-11
     -4.20301583691336E-16   4.01070028942207E-11   4.67961174916750E-16  -2.19932826233426E-11  -4.76595912247986E-17
      1.54500635361729E-11  -7.02176494094678E-18  -3.74433303063745E-11  -4.76314922340761E-17   2.20284674987197E-11
      5.46532571742252E-17
      1.00000000000000E+04
      8.00000000000000E-01   0.00000000000000E+00  -1.81771747599451E+01  -4.55761396525235E-13   4.25238444192114E-16
     -8.58315766876720E-17  -4.18386655970102E-16   3.35020943352976E-17  -6.85178822208407E-18  -3.57441336324570E-11
     -4.18323006509988E-16   9.00888360464882E-11   4.66091759935999E-16  -5.15116487913561E-11  -4.77687534258523E-17
      3.57440814712657E-11  -6.91543768219934E-18  -8.72556967860024E-11  -4.77051039657371E-17   5.15010378073516E-11
      5.46205416474506E-17
      1.00000000000000E+04
      8.00000000000000E-01   0.00000000000000E+00  -1.86771747599451E+01  -4.55761396525235E-13   4.23545441637567E-16
     -1.36654070656300E-16  -4.16817579997440E-16   6.47682830506697E-17  -6.72786164021928E-18  -7.92788311517539E-11
     -4.16679378677280E-16   1.95977400505851E-10   4.64493077929071E-16  -1.15248479262041E-10  -4.78136992525467E-17
      7.92787593489588E-11  -6.86606296037969E-18  -1.94527173849819E-10  -4.76754979323864E-17   1.15763394717410E-10
      5.45415608930523E-17
      1.00000000000000E+04
      8.00000000000000E-01   0.00000000000000E+00  -1.91771747599451E+01  -3.03840931016824E-13   4.22143742890879E-16
     -2.14566960204832E-16  -4.15532756093601E-16   1.11329663917261E-16  -6.61098679741404E-18  -1.67781338987235E-10
     -4.15246687957473E-16   4.13831348044914E-10   4.63007691119411E-16  -2.45348682780472E-10  -4.77610031611758E-17
      1.67781236119936E-10  -6.89705493354128E-18  -4.13129807577834E-10  -4.74749350250486E-17   2.45959233658119E-10
      5.43719899590737E-17
      1.00000000000000E+04
      8.00000000000000E-01   0.00000000000000E+00  -1.96771747599451E+01   3.03840931016824E-13   4.20966745504655E-16
     -3.04110116288463E-16  -4.14476096264356E-16   1.63770525902419E-16  -6.49064924037733E-18  -3.36911473094354E-10
     -4.13915356540357E-16   8.34499117037706E-10   4.61467971663178E-16  -4.94443109983240E-10  -4.75526151224379E-17
      3.36911332947795E-10  -7.05138896437589E-18  -8.31354279144763E-10  -4.69918753984398E-17   4.94501115229880E-10
      5.40432643623488E-17
      1.00000000000000E+04
      8.00000000000000E-01   0.00000000000000E+00  -2.01771747599451E+01   4.55761396525235E-13   4.19971398391438E-16
     -3.72705616719671E-16  -4.13615245527443E-16   2.02113173416253E-16  -6.35615286410028E-18  -6.37740427473037E-10
     -4.12582548557447E-16   1.57435178406367E-09   4.59692681684219E-16  -9.37399354872284E-10  -4.71101331268741E-17
      6.37740256757880E-10  -7.38884983409648E-18  -1.57513940951434E-09  -4.60774361568792E-17   9.37045431255884E-10
      5.34662859910109E-17
      1.00000000000000E+04
      8.00000000000000E-01   0.00000000000000E+00  -2.06771747599451E+01   9.11522793050471E-13   4.19130030086144E-16
     -3.98863956912960E-16  -4.12932309188706E-16   2.13300077055859E-16  -6.19772089749423E-18  -1.13047813410917E-09
     -4.11159683567334E-16   2.79199431511359E-09   4.57516935832634E-16  -1.66115553781565E-09  -4.63572522641378E-17
      1.13047794852428E-09  -7.97034651886604E-18  -2.79163327306031E-09  -4.45846266427656E-17   1.66109836986897E-09
      5.25549731613427E-17
      1.00000000000000E+04
      8.00000000000000E-01   0.00000000000000E+00  -2.11771747599451E+01  -1.51920465508412E-12   4.18423260531600E-16
     -3.87880969255909E-16  -4.12413971407158E-16   2.01852739615420E-16  -6.00928912455948E-18  -1.86718793440013E-09
     -4.09595237116207E-16   4.60364586630140E-09   4.54856478647644E-16  -2.73804639593831E-09  -4.52612415317610E-17
      1.86718774863441E-09  -8.82802341550937E-18  -4.60523394272039E-09  -4.24425072408135E-17   2.73791062939260E-09
      5.12705306559622E-17
      1.00000000000000E+04
      8.00000000000000E-01   0.00000000000000E+00  -2.16771747599451E+01   3.03840931016824E-13   4.17834148914620E-16
     -3.56175326650040E-16  -4.12042710753009E-16   1.79000385613133E-16  -5.79143816166298E-18  -2.86927950930039E-09
     -4.07897277821283E-16   7.06187091869301E-09   4.51767483899483E-16  -4.19209348007219E-09  -4.38702060782214E-17
      2.86927933218919E-09  -9.93687109339363E-18  -7.06137263331146E-09  -3.97247731464881E-17   4.19209332523912E-09
      4.96616442391695E-17
      1.00000000000000E+04
      8.00000000000000E-01   0.00000000000000E+00  -2.21771747599451E+01   0.00000000000000E+00   4.17344926872478E-16
     -3.18350657449529E-16  -4.11793041759810E-16   1.53494469900456E-16  -5.55188511274499E-18  -4.11506548411462E-09
     -4.06131400773164E-16   1.00987610242062E-08   4.48441615395885E-16  -5.98184226377474E-09  -4.23102146223732E-17
      4.11506531927692E-09  -1.12135260993864E-17  -1.00969074295276E-08  -3.66485736357378E-17   5.98262793172126E-09
      4.78620997352687E-17
      1.00000000000000E+04
      8.00000000000000E-01   0.00000000000000E+00  -2.26771747599451E+01   4.55761396525235E-13   4.16936965510001E-16
     -2.84072178554704E-16  -4.11634370348555E-16   1.30855983984734E-16  -5.30259516151965E-18  -5.54785041368217E-09
     -4.04388890087243E-16   1.35646745243151E-08   4.45125624685267E-16  -8.01493415947006E-09  -4.07367345972085E-17
      5.54785026029129E-09  -1.25480754228281E-17  -1.35627842888807E-08  -3.34912543359074E-17   8.01486799882728E-09
      4.60393297581034E-17
      1.00000000000000E+04
      8.00000000000000E-01   0.00000000000000E+00  -2.31771747599451E+01   6.07681862033647E-13   4.16592644956078E-16
     -2.58208274882605E-16  -4.11537116340680E-16   1.13168030051260E-16  -5.05552861549648E-18  -7.09772619562926E-09
     -4.02748693950017E-16   1.72797375878578E-08   4.42026864937633E-16  -1.01826737347177E-08  -3.92781709864457E-17
      7.09772605081501E-09  -1.38439510061665E-17  -1.72803996723960E-08  -3.04897485957744E-17   1.01820134393048E-08
      4.43336996014130E-17
      1.00000000000000E+04
      8.00000000000000E-01   0.00000000000000E+00  -2.36771747599451E+01  -3.03840931016824E-13   4.16297084766229E-16
     -2.38811481098091E-16  -4.11477390711230E-16   9.97854942074830E-17  -4.81969405504746E-18  -8.70151007277838E-09
     -4.01257497775962E-16   2.10912701469983E-08   4.39265856812185E-16  -1.23902730791219E-08  -3.80083590358797E-17
      8.70150993388089E-09  -1.50395869903152E-17  -2.10917829132090E-08  -2.77884661006174E-17   1.23901774054695E-08
      4.28280530902232E-17
      1.00000000000000E+04
      8.00000000000000E-01   0.00000000000000E+00  -2.41771747599451E+01  -6.07681862033647E-13   4.16038759088380E-16
     -2.23513933041673E-16  -4.11438395610064E-16   8.91488574387484E-17  -4.60036347839981E-18  -1.03123188948326E-08
     -3.99930494422430E-16   2.48857876140019E-08   4.36881099100022E-16  -1.45703067665972E-08  -3.69506046782879E-17
      1.03123187608128E-08  -1.61082646660393E-17  -2.48826254382857E-08  -2.54427034906473E-17   1.45699322445842E-08
      4.15509681567960E-17
      1.00000000000000E+04
      8.00000000000000E-01   0.00000000000000E+00  -2.46771747599451E+01  -1.21536372406729E-12   4.15809196417433E-16
     -2.08946113463207E-16  -4.11409496727224E-16   8.00332795137038E-17  -4.39969969032240E-18  -1.19001406742880E-08
     -3.98761845865069E-16   2.85848990286662E-08   4.34857405180281E-16  -1.66822758338455E-08  -3.60955593158398E-17
      1.19001405449711E-08  -1.70473505524809E-17  -2.85824162988030E-08  -2.34479084536836E-17   1.66825382379442E-08
      4.04952590059309E-17
      1.00000000000000E+04
      8.00000000000000E-01   0.00000000000000E+00  -2.51771747599451E+01   9.11522793050471E-13   4.15602309481325E-16
     -1.95647963457691E-16  -4.11384505880371E-16   7.18299336475146E-17  -4.21780360106897E-18  -1.34482068249878E-08
     -3.97735292929421E-16   3.21544222862519E-08   4.33153604968557E-16  -1.87060920212393E-08  -3.54183120378944E-17
      1.34482067011538E-08  -1.78670165520268E-17  -3.21542986506010E-08  -2.17690990869292E-17   1.87059669180507E-08
      3.96361156379053E-17
      1.00000000000000E+04
      8.00000000000000E-01   0.00000000000000E+00  -2.56771747599451E+01   1.51920465508412E-13   4.15413726275113E-16
     -1.82252938835084E-16  -4.11360099346377E-16   6.43562512955000E-17  -4.05362692882389E-18  -1.49486930660696E-08
     -3.96831331714092E-16   3.55864575225524E-08   4.31720919574005E-16  -2.06349554652103E-08  -3.48895878600885E-17
      1.49486929481799E-08  -1.85823945611234E-17  -3.55836483490975E-08  -2.03608202277758E-17   2.06355087504731E-08
      3.89432147890973E-17
      1.00000000000000E+04
      8.00000000000000E-01   0.00000000000000E+00  -2.61771747599451E+01  -6.07681862033647E-13   4.15240262480688E-16
     -1.69200548508172E-16  -4.11334665006702E-16   5.76078462915370E-17  -3.90559747404784E-18  -1.63992390616985E-08
     -3.96031042069306E-16   3.88700664640512E-08   4.30512571753540E-16  -2.24698007883212E-08  -3.44815296842451E-17
      1.63992389499074E-08  -1.92092204114467E-17  -3.88690396806299E-08  -1.91779067468511E-17   2.24693406896251E-08
      3.83871271569689E-17
      1.00000000000000E+04