DF-ISE text

Info {
  version   = 1.0
  type      = xyplot
  datasets  = [
    "time"
    "Ntop OuterVoltage" "Ntop InnerVoltage" "Ntop QuasiFermiPotential" "Ntop DisplacementCurrent" "Ntop eCurrent"
    "Ntop hCurrent" "Ntop TotalCurrent" "Ntop Charge" "Ptop OuterVoltage" "Ptop InnerVoltage"
    "Ptop QuasiFermiPotential" "Ptop DisplacementCurrent" "Ptop eCurrent" "Ptop hCurrent" "Ptop TotalCurrent"
    "Ptop Charge" "Pbot OuterVoltage" "Pbot InnerVoltage" "Pbot QuasiFermiPotential" "Pbot DisplacementCurrent"
    "Pbot eCurrent" "Pbot hCurrent" "Pbot TotalCurrent" "Pbot Charge" ]
  functions = [
    Time
    OuterVoltage InnerVoltage QuasiFermiPotential DisplacementCurrent eCurrent
    hCurrent TotalCurrent Charge OuterVoltage InnerVoltage
    QuasiFermiPotential DisplacementCurrent eCurrent hCurrent TotalCurrent
    Charge OuterVoltage InnerVoltage QuasiFermiPotential DisplacementCurrent
    eCurrent hCurrent TotalCurrent Charge ]
}

Data {
      1.00000000000000E-03
      8.00000000000000E-01   8.00000000000000E-01   0.00000000000000E+00   0.00000000000000E+00   5.54692156909230E-16
     -3.87826601591484E-19   5.54304330307639E-16   3.71859469906140E-15   0.00000000000000E+00   0.00000000000000E+00
      0.00000000000000E+00   0.00000000000000E+00  -1.03632582671442E-18  -6.10730118805032E-17  -6.21093377072176E-17
     -1.79301043073397E-15  -5.00000000000000E-02  -5.00000000000000E-02   0.00000000000000E+00   0.00000000000000E+00
     -2.29526236934297E-17  -4.69242368906991E-16  -4.92194992600421E-16  -1.92558426832742E-15
      2.91111111111111E-03
      8.00000000000000E-01   8.00000000000000E-01   0.00000000000000E+00   0.00000000000000E+00   5.86307332064954E-16
      7.14684591046251E-19   5.87022016656001E-16   3.71947682845242E-15   0.00000000000000E+00   0.00000000000000E+00
      0.00000000000000E+00   0.00000000000000E+00  -1.03632582625701E-18  -6.09587709176674E-17  -6.19950967439244E-17
     -1.79300916331792E-15  -1.45555555555556E-01  -1.45555555555555E-01   0.00000000000000E+00   0.00000000000000E+00
     -2.29526526263795E-17  -5.02074267285697E-16  -5.25026919912077E-16  -1.92646766513450E-15
      6.56345679012346E-03
      8.00000000000000E-01   8.00000000000000E-01   0.00000000000000E+00   0.00000000000000E+00   6.42774610019259E-16
      1.31531008981837E-18   6.44089920109077E-16   3.72115916889075E-15   0.00000000000000E+00   0.00000000000000E+00
      0.00000000000000E+00   0.00000000000000E+00  -1.03632582483925E-18  -6.07536879792427E-17  -6.17900138040819E-17
     -1.79300523491215E-15  -3.28172839506173E-01  -3.28172839506173E-01   0.00000000000000E+00   0.00000000000000E+00
     -2.29527079328016E-17  -5.59347198372194E-16  -5.82299906304996E-16  -1.92815393397860E-15
      1.35434951989026E-02
      8.00000000000000E-01   8.00000000000000E-01   0.00000000000000E+00   0.00000000000000E+00   7.39904432921763E-16
      4.00223248442707E-19   7.40304656170206E-16   3.72435687765391E-15   0.00000000000000E+00   0.00000000000000E+00
      0.00000000000000E+00   0.00000000000000E+00  -1.03632581833802E-18  -6.04197161028391E-17  -6.14560419211771E-17
     -1.79298722160852E-15  -6.77174759945130E-01  -6.77174759945130E-01   0.00000000000000E+00   0.00000000000000E+00
     -2.29528136396848E-17  -6.55895800609344E-16  -6.78848614249028E-16  -1.93136965604538E-15
      2.35434951989026E-02
      8.00000000000000E-01   8.00000000000000E-01   0.00000000000000E+00   0.00000000000000E+00   8.61560368959599E-16
      6.99111216617928E-19   8.62259480176217E-16   3.72886224064130E-15   0.00000000000000E+00   0.00000000000000E+00
      0.00000000000000E+00   0.00000000000000E+00  -1.03632578601837E-18  -6.00831506889581E-17  -6.11194764749765E-17
     -1.79289768465502E-15  -1.17717475994513E+00  -1.17717475994513E+00   0.00000000000000E+00   0.00000000000000E+00
     -2.29529651106244E-17  -7.78187038590616E-16  -8.01140003701240E-16  -1.93596455598628E-15
      3.35434951989026E-02
      8.00000000000000E-01   8.00000000000000E-01   0.00000000000000E+00   0.00000000000000E+00   9.65843102052505E-16
      1.76069149765071E-18   9.67603793550156E-16   3.73316088470598E-15   0.00000000000000E+00   0.00000000000000E+00
      0.00000000000000E+00   0.00000000000000E+00  -1.03632567645654E-18  -5.99069371396253E-17  -6.09432628160819E-17
     -1.79259416288000E-15  -1.67717475994513E+00  -1.67717475994513E+00   0.00000000000000E+00   0.00000000000000E+00
     -2.29531172207581E-17  -8.83707413513316E-16  -9.06660530734074E-16  -1.94056672182596E-15
      4.35434951989026E-02
      8.00000000000000E-01   8.00000000000000E-01   0.00000000000000E+00   0.00000000000000E+00   1.05008010041499E-15
     -1.13455839037979E-18   1.04894554202461E-15   3.73699942826229E-15   0.00000000000000E+00   0.00000000000000E+00
      0.00000000000000E+00   0.00000000000000E+00  -1.03632537784880E-18  -5.99217205934466E-17  -6.09580459712955E-17
     -1.79176598169219E-15  -2.17717475994513E+00  -2.17717475994513E+00   0.00000000000000E+00   0.00000000000000E+00
     -2.29532718010721E-17  -9.65034224252242E-16  -9.87987496053314E-16  -1.94523344657010E-15
      5.35434951989026E-02
      8.00000000000000E-01   8.00000000000000E-01   0.00000000000000E+00   0.00000000000000E+00   1.11718639971984E-15
      3.90583978624622E-19   1.11757698369846E-15   3.73994877011671E-15   0.00000000000000E+00   0.00000000000000E+00
      0.00000000000000E+00   0.00000000000000E+00  -1.03632471622559E-18  -6.01998509907883E-17  -6.12361757070139E-17
     -1.78992403638124E-15  -2.67717475994513E+00  -2.67717475994513E+00   0.00000000000000E+00   0.00000000000000E+00
     -2.29534308114025E-17  -1.03338737718005E-15  -1.05634080799145E-15  -1.95002473373547E-15
      6.35434951989026E-02
      8.00000000000000E-01   8.00000000000000E-01   0.00000000000000E+00   0.00000000000000E+00   1.17003676402615E-15
     -1.16655957900195E-17   1.15837116823613E-15   3.74152266160852E-15   0.00000000000000E+00   0.00000000000000E+00
      0.00000000000000E+00   0.00000000000000E+00  -1.03632351171863E-18  -6.08682632390313E-17  -6.19045867507499E-17
     -1.78653600542352E-15  -3.17717475994513E+00  -3.17717475994513E+00   0.00000000000000E+00   0.00000000000000E+00
     -2.29535957733777E-17  -1.07351298571201E-15  -1.09646658148538E-15  -1.95498665618499E-15
      7.35434951989026E-02
      8.00000000000000E-01   8.00000000000000E-01   0.00000000000000E+00   0.00000000000000E+00   1.21142192139501E-15
     -6.75575254011918E-18   1.20466616885489E-15   3.74143963410579E-15   0.00000000000000E+00   0.00000000000000E+00
      0.00000000000000E+00   0.00000000000000E+00  -1.03632168275205E-18  -6.20998872767987E-17  -6.31362089595507E-17
     -1.78128953699925E-15  -3.67717475994513E+00  -3.67717475994513E+00   0.00000000000000E+00   0.00000000000000E+00
     -2.29537677182370E-17  -1.11857619217710E-15  -1.14152995989534E-15  -1.96015009710654E-15
      8.35434951989026E-02
      8.00000000000000E-01   8.00000000000000E-01   0.00000000000000E+00   0.00000000000000E+00   1.24376316302085E-15
     -3.49999242020144E-18   1.24026317060065E-15   3.73980636683905E-15   0.00000000000000E+00   0.00000000000000E+00
      0.00000000000000E+00   0.00000000000000E+00  -1.03631930386841E-18  -6.40151246112975E-17  -6.50514439151659E-17
     -1.77427127788082E-15  -4.17717475994513E+00  -4.17717475994513E+00   0.00000000000000E+00   0.00000000000000E+00
     -2.29539473248222E-17  -1.15225777936066E-15  -1.17521172668549E-15  -1.96553508895823E-15
      9.35434951989026E-02
      8.00000000000000E-01   8.00000000000000E-01   0.00000000000000E+00   0.00000000000000E+00   1.26942605600482E-15
      3.28776343409192E-18   1.27271381943891E-15   3.73697043959793E-15   0.00000000000000E+00   0.00000000000000E+00
      0.00000000000000E+00   0.00000000000000E+00  -1.03631652837018E-18  -6.66243572600135E-17  -6.76606737883837E-17
     -1.76581544559801E-15  -4.67717475994513E+00  -4.67717475994513E+00   0.00000000000000E+00   0.00000000000000E+00
     -2.29541350552862E-17  -1.18209901059524E-15  -1.20505314565052E-15  -1.97115499399992E-15
      1.03543495198903E-01
      8.00000000000000E-01   8.00000000000000E-01   0.00000000000000E+00   0.00000000000000E+00   1.28957283858209E-15
     -1.00612688005810E-17   1.27951156978151E-15   3.73325631595453E-15   0.00000000000000E+00   0.00000000000000E+00
      0.00000000000000E+00   0.00000000000000E+00  -1.03631348435472E-18  -6.94092259547981E-17  -7.04455394391528E-17
     -1.75623909091399E-15  -5.17717475994513E+00  -5.17717475994513E+00   0.00000000000000E+00   0.00000000000000E+00
     -2.29543311769518E-17  -1.18611169916540E-15  -1.20906603034235E-15  -1.97701722504054E-15
      1.13543495198903E-01
      8.00000000000000E-01   8.00000000000000E-01   0.00000000000000E+00   0.00000000000000E+00   1.30471611049760E-15
     -8.46897679564755E-18   1.29624713370195E-15   3.72887768100524E-15   0.00000000000000E+00   0.00000000000000E+00
      0.00000000000000E+00   0.00000000000000E+00  -1.03631025016470E-18  -7.15467934457874E-17  -7.25831036959521E-17
     -1.74575308744523E-15  -5.67717475994513E+00  -5.67717475994513E+00   0.00000000000000E+00   0.00000000000000E+00
     -2.29545358057432E-17  -1.20070949420025E-15  -1.22366403000600E-15  -1.98312459356000E-15
      1.23543495198903E-01
      8.00000000000000E-01   8.00000000000000E-01   0.00000000000000E+00   0.00000000000000E+00   1.31585442280639E-15
     -4.48210896686613E-18   1.31137231383953E-15   3.72396253916900E-15   0.00000000000000E+00   0.00000000000000E+00
      0.00000000000000E+00   0.00000000000000E+00  -1.03630687028392E-18  -7.27620347219454E-17  -7.37983415922293E-17
     -1.73448537563788E-15  -6.17717475994513E+00  -6.17717475994513E+00   0.00000000000000E+00   0.00000000000000E+00
     -2.29547489671447E-17  -1.21461922328016E-15  -1.23757397224730E-15  -1.98947716353112E-15
      1.33543495198903E-01
      8.00000000000000E-01   8.00000000000000E-01   0.00000000000000E+00   0.00000000000000E+00   1.32432698836072E-15
      4.64581770551289E-18   1.32897280606623E-15   3.71858882844223E-15   0.00000000000000E+00   0.00000000000000E+00
      0.00000000000000E+00   0.00000000000000E+00  -1.03630337104141E-18  -7.33012443836540E-17  -7.43375477546954E-17
     -1.72251527410939E-15  -6.67717475994513E+00  -6.67717475994513E+00   0.00000000000000E+00   0.00000000000000E+00
     -2.29549706392541E-17  -1.23168028767228E-15  -1.25463525831153E-15  -1.99607355433284E-15
      1.43543495198903E-01
      8.00000000000000E-01   8.00000000000000E-01   0.00000000000000E+00   0.00000000000000E+00   1.33110427347146E-15
      1.69321625270583E-17   1.34803643599852E-15   3.71280665456861E-15   0.00000000000000E+00   0.00000000000000E+00
      0.00000000000000E+00   0.00000000000000E+00  -1.03629976935483E-18  -7.34207058761865E-17  -7.44570056455414E-17
     -1.70989498902896E-15  -7.17717475994513E+00  -7.17717475994513E+00   0.00000000000000E+00   0.00000000000000E+00
     -2.29552007767735E-17  -1.25062422957620E-15  -1.27357943035298E-15  -2.00291166553964E-15
      1.53543495198903E-01
      8.00000000000000E-01   8.00000000000000E-01   0.00000000000000E+00   0.00000000000000E+00   1.33672660804702E-15
     -1.14544595524307E-17   1.32527214849459E-15   3.70665022631540E-15   0.00000000000000E+00   0.00000000000000E+00
      0.00000000000000E+00   0.00000000000000E+00  -1.03629607704027E-18  -7.32788639148537E-17  -7.43151599918939E-17
     -1.69666116722070E-15  -7.67717475994513E+00  -7.67717475994513E+00   0.00000000000000E+00   0.00000000000000E+00
     -2.29554393236750E-17  -1.22800154917902E-15  -1.25095698850269E-15  -2.00998905909470E-15
      1.63543495198903E-01
      8.00000000000000E-01   8.00000000000000E-01   0.00000000000000E+00   0.00000000000000E+00   1.34148544922283E-15
     -6.85262210550296E-18   1.33463282711733E-15   3.70014422267402E-15   0.00000000000000E+00   0.00000000000000E+00
      0.00000000000000E+00   0.00000000000000E+00  -1.03629230295004E-18  -7.29682988753032E-17  -7.40045911782533E-17
     -1.68284105927605E-15  -8.17717475994513E+00  -8.17717475994513E+00   0.00000000000000E+00   0.00000000000000E+00
     -2.29556862199702E-17  -1.23767254971910E-15  -1.26062823593907E-15  -2.01730316339797E-15
      1.73543495198903E-01
      8.00000000000000E-01   8.00000000000000E-01   0.00000000000000E+00   0.00000000000000E+00   1.34556145029359E-15
     -8.87450729853967E-18   1.33668694299505E-15   3.69330732644450E-15   0.00000000000000E+00   0.00000000000000E+00
      0.00000000000000E+00   0.00000000000000E+00  -1.03628845409267E-18  -7.25263882730687E-17  -7.35626767271614E-17
     -1.66845594094573E-15  -8.67717475994513E+00  -8.67717475994513E+00   0.00000000000000E+00   0.00000000000000E+00
     -2.29559414054281E-17  -1.24016832486246E-15  -1.26312426626788E-15  -2.02485138549877E-15
      1.83543495198903E-01
      8.00000000000000E-01   8.00000000000000E-01   0.00000000000000E+00   0.00000000000000E+00   1.34909371903977E-15
     -1.70085366277658E-17   1.33208518241201E-15   3.68615426852334E-15   0.00000000000000E+00   0.00000000000000E+00
      0.00000000000000E+00   0.00000000000000E+00  -1.03628453626008E-18  -7.19477196834302E-17  -7.29840042196903E-17
     -1.65352309513166E-15  -9.17717475994513E+00  -9.17717475994513E+00   0.00000000000000E+00   0.00000000000000E+00
     -2.29562048216538E-17  -1.23614497337066E-15  -1.25910117819232E-15  -2.03263117339168E-15
      1.93543495198903E-01
      8.00000000000000E-01   8.00000000000000E-01   0.00000000000000E+00   0.00000000000000E+00   1.35220256854995E-15
      7.14105733275746E-18   1.35934362588271E-15   3.67869702421140E-15   0.00000000000000E+00   0.00000000000000E+00
      0.00000000000000E+00   0.00000000000000E+00  -1.03628055439881E-18  -7.12471563432306E-17  -7.22834368976294E-17
     -1.63805697564931E-15  -9.67717475994513E+00  -9.67717475994513E+00   0.00000000000000E+00   0.00000000000000E+00
     -2.29564764131642E-17  -1.26410371257192E-15  -1.28706018898508E-15  -2.04064004856209E-15
      2.03543495198903E-01
      8.00000000000000E-01   8.00000000000000E-01   0.00000000000000E+00   0.00000000000000E+00   1.35497966946552E-15
      3.16150617344366E-18   1.35814117563896E-15   3.67094547889165E-15   0.00000000000000E+00   0.00000000000000E+00
      0.00000000000000E+00   0.00000000000000E+00  -1.03627651283689E-18  -7.03884597923807E-17  -7.14247363052176E-17
     -1.62206985983866E-15  -1.01771747599451E+01  -1.01771747599451E+01   0.00000000000000E+00   0.00000000000000E+00
     -2.29567561278264E-17  -1.26375968320592E-15  -1.28671643933375E-15  -2.04887561905299E-15
      2.13543495198903E-01
      8.00000000000000E-01   8.00000000000000E-01   0.00000000000000E+00   0.00000000000000E+00   1.35748823932868E-15
      1.57362180104920E-17   1.37322445733917E-15   3.66290773995657E-15   0.00000000000000E+00   0.00000000000000E+00
      0.00000000000000E+00   0.00000000000000E+00  -1.03627241542458E-18  -6.90879207142767E-17  -7.01241931297013E-17
     -1.60557216053859E-15  -1.06771747599451E+01  -1.06771747599451E+01   0.00000000000000E+00   0.00000000000000E+00
     -2.29570439168506E-17  -1.28014322029262E-15  -1.30310026420947E-15  -2.05733557941797E-15
      2.23543495198903E-01
      8.00000000000000E-01   8.00000000000000E-01   0.00000000000000E+00   0.00000000000000E+00   1.35979319058638E-15
     -5.29693273700461E-18   1.35449625784937E-15   3.65459021508738E-15   0.00000000000000E+00   0.00000000000000E+00
      0.00000000000000E+00   0.00000000000000E+00  -1.03626826562358E-18  -6.66894249804290E-17  -6.77256932460526E-17
     -1.58857251250737E-15  -1.11771747599451E+01  -1.11771747599451E+01   0.00000000000000E+00   0.00000000000000E+00
     -2.29573397345093E-17  -1.26381322486881E-15  -1.28677056460332E-15  -2.06601770258001E-15
      2.33543495198903E-01
      8.00000000000000E-01   8.00000000000000E-01   0.00000000000000E+00   0.00000000000000E+00   1.36194986822120E-15
     -1.05437449360848E-17   1.35140612328511E-15   3.64599755982695E-15   0.00000000000000E+00   0.00000000000000E+00
      0.00000000000000E+00   0.00000000000000E+00  -1.03626406656795E-18  -6.05764177030386E-17  -6.16126817696066E-17
     -1.57107773158384E-15  -1.16771747599451E+01  -1.16771747599451E+01   0.00000000000000E+00   0.00000000000000E+00
     -2.29576435377417E-17  -1.26683579797776E-15  -1.28979344151551E-15  -2.07491982824311E-15
      2.43543495198903E-01
      8.00000000000000E-01   8.00000000000000E-01   0.00000000000000E+00   0.00000000000000E+00   1.36399050919530E-15
     -1.62266141102329E-17   1.34776389508507E-15   3.63713260876111E-15   0.00000000000000E+00   0.00000000000000E+00
      0.00000000000000E+00   0.00000000000000E+00  -1.03625982111545E-18  -4.20026466704398E-17  -4.30389064915552E-17
     -1.55309275597686E-15  -1.21771747599451E+01  -1.21771747599451E+01   0.00000000000000E+00   0.00000000000000E+00
     -2.29579552858004E-17  -1.28176703330771E-15  -1.30472498859351E-15  -2.08403985278425E-15
      2.53543495198903E-01
      8.00000000000000E-01   8.00000000000000E-01   0.00000000000000E+00   0.00000000000000E+00   1.36593487449563E-15
     -1.56064677600288E-17   1.35032840673560E-15   3.62799645246059E-15   0.00000000000000E+00   0.00000000000000E+00
      0.00000000000000E+00   0.00000000000000E+00  -1.03625553190770E-18   1.81712099548397E-17   1.71349544229320E-17
     -1.53462072557299E-15  -1.26771747599451E+01  -1.26771747599451E+01   0.00000000000000E+00   0.00000000000000E+00
     -2.29582749401728E-17  -1.34450508621836E-15  -1.36746336115853E-15  -2.09337572688760E-15
      2.63543495198903E-01
      8.00000000000000E-01   8.00000000000000E-01   0.00000000000000E+00   0.00000000000000E+00   1.36779490232557E-15
     -2.12251136471870E-17   1.34656978867838E-15   3.61858892160969E-15   0.00000000000000E+00   0.00000000000000E+00
      0.00000000000000E+00   0.00000000000000E+00  -1.03625120146180E-18   2.15716731175623E-16   2.14680479974162E-16
     -1.51566345156010E-15  -1.31771747599451E+01  -1.31771747599451E+01   0.00000000000000E+00   0.00000000000000E+00
     -2.29586024650639E-17  -1.53829166618748E-15  -1.56125026865254E-15  -2.10292547004959E-15
      2.73543495198903E-01
      8.00000000000000E-01   8.00000000000000E-01   0.00000000000000E+00   0.00000000000000E+00   1.36957323227652E-15
      1.54015620580234E-17   1.38497479433454E-15   3.60890989120556E-15   0.00000000000000E+00   0.00000000000000E+00
      0.00000000000000E+00   0.00000000000000E+00  -1.03624683232090E-18   8.58239733019279E-16   8.57203486186958E-16
     -1.49622267598032E-15  -1.36771747599451E+01  -1.36771747599451E+01   0.00000000000000E+00   0.00000000000000E+00
     -2.29589378289441E-17  -2.21921934269256E-15  -2.24217828052150E-15  -2.11268721522523E-15
      2.83543495198903E-01
      8.00000000000000E-01   8.00000000000000E-01   0.00000000000000E+00   0.00000000000000E+00   1.37126133128107E-15
      2.30965345360036E-17   1.39435786581707E-15   3.59896195216968E-15   0.00000000000000E+00   0.00000000000000E+00
      0.00000000000000E+00   0.00000000000000E+00  -1.03624242728568E-18   2.91166093796169E-15   2.91062469553441E-15
     -1.47630265272178E-15  -1.41771747599451E+01  -1.41771747599451E+01   0.00000000000000E+00   0.00000000000000E+00
     -2.29592810076764E-17  -4.28202328034380E-15  -4.30498256135148E-15  -2.12265929944790E-15
      2.93543495198903E-01
      8.00000000000000E-01   8.00000000000000E-01   0.00000000000000E+00   0.00000000000000E+00   1.37283828590784E-15
     -1.00225178980858E-17   1.36281576800975E-15   3.58875487044342E-15   0.00000000000000E+00   0.00000000000000E+00
      0.00000000000000E+00   0.00000000000000E+00  -1.03623798968939E-18   9.33358156170392E-15   9.33254532371423E-15
     -1.45591446165285E-15  -1.46771747599451E+01  -1.46771747599451E+01   0.00000000000000E+00   0.00000000000000E+00
     -2.29596319895672E-17  -1.06724014597344E-14  -1.06953610917239E-14  -2.13284040879057E-15
      3.03543495198903E-01
      8.00000000000000E-01   8.00000000000000E-01   0.00000000000000E+00   0.00000000000000E+00   1.37426895889427E-15
      2.50643914264616E-17   1.39933335032073E-15   3.57831141038103E-15   0.00000000000000E+00   0.00000000000000E+00
      0.00000000000000E+00   0.00000000000000E+00  -1.03623352344073E-18   2.89301327202796E-14   2.89290964867561E-14
     -1.43508165541219E-15  -1.51771747599451E+01  -1.51771747599451E+01   0.00000000000000E+00   0.00000000000000E+00
     -2.29599907815663E-17  -3.03054698462952E-14  -3.03284298370767E-14  -2.14322975496884E-15
      3.13543495198903E-01
      8.00000000000000E-01   8.00000000000000E-01   0.00000000000000E+00   0.00000000000000E+00   1.37549724618528E-15
      6.48922052233636E-18   1.38198646670762E-15   3.56767235681517E-15   0.00000000000000E+00  -9.18447372075268E-17
      0.00000000000000E+00   0.00000000000000E+00  -1.03622903173808E-18   8.71172524449135E-14   8.71162162158818E-14
     -1.41384515122257E-15  -1.56771747599451E+01  -1.56771747599451E+01   0.00000000000000E+00   0.00000000000000E+00
     -2.29603574139216E-17  -8.84752423251754E-14  -8.84982026825893E-14  -2.15382720559259E-15
      3.23543495198903E-01
      8.00000000000000E-01   8.00000000000000E-01   0.00000000000000E+00   0.00000000000000E+00   1.37642646002333E-15
      2.65319973678464E-18   1.37907965976011E-15   3.55689720231060E-15   0.00000000000000E+00  -2.75534211622580E-16
      0.00000000000000E+00   0.00000000000000E+00  -1.03622451059783E-18   2.54764767277718E-13   2.54763731053208E-13
     -1.39226394268500E-15  -1.61771747599451E+01  -1.61771747599451E+01   0.00000000000000E+00   0.00000000000000E+00
     -2.29607319395408E-17  -2.56119849981029E-13  -2.56142810712969E-13  -2.16463325962559E-15
      3.33543495198903E-01
      8.00000000000000E-01   8.00000000000000E-01   0.00000000000000E+00   0.00000000000000E+00   1.37687109072994E-15
      4.38154716580781E-17   1.42068656238802E-15   3.54605857789249E-15   0.00000000000000E+00  -7.34757897660214E-16
      0.00000000000000E+00   0.00000000000000E+00  -1.03621992430918E-18   7.22188105811725E-13   7.22187069591801E-13
     -1.37040974052079E-15  -1.66771747599451E+01  -1.66771747599451E+01   0.00000000000000E+00   0.00000000000000E+00
     -2.29611144268995E-17  -7.23584795039762E-13  -7.23607756154189E-13  -2.17564883737171E-15
      3.43543495198903E-01
      8.00000000000000E-01   8.00000000000000E-01   0.00000000000000E+00   0.00000000000000E+00   1.37644431209889E-15
     -2.23687735613654E-17   1.35407553853752E-15   3.53523311907079E-15   0.00000000000000E+00  -2.02058421856559E-15
      0.00000000000000E+00   0.00000000000000E+00  -1.03621512455218E-18   1.98016983230065E-12   1.98016879608553E-12
     -1.34835809248040E-15  -1.71771747599451E+01  -1.71771747599451E+01   0.00000000000000E+00   0.00000000000000E+00
     -2.29615049513783E-17  -1.98149991011911E-12  -1.98152287162406E-12  -2.18687502659039E-15
      3.53543495198903E-01
      8.00000000000000E-01   8.00000000000000E-01   0.00000000000000E+00   0.00000000000000E+00   1.37431316337519E-15
     -1.87447355972655E-17   1.35556842777792E-15   3.52449435927356E-15   0.00000000000000E+00  -5.23515002082902E-15
      0.00000000000000E+00   0.00000000000000E+00  -1.03620961898225E-18   5.24070816411958E-12   5.24070712790996E-12
     -1.32618132032811E-15  -1.76771747599451E+01  -1.76771747599451E+01   0.00000000000000E+00   0.00000000000000E+00
     -2.29619035938722E-17  -5.24203973443417E-12  -5.24206269633777E-12  -2.19831303894546E-15
      3.63543495198903E-01
      8.00000000000000E-01   8.00000000000000E-01   0.00000000000000E+00   0.00000000000000E+00   1.36872529137257E-15
     -2.13674145359100E-17   1.34735787683666E-15   3.51391137973536E-15   0.00000000000000E+00  -1.33174868950914E-14
      0.00000000000000E+00   0.00000000000000E+00  -1.03620199767188E-18   1.33612191911097E-11   1.33612181549077E-11
     -1.30394676328518E-15  -1.81771747599451E+01  -1.81771747599451E+01   0.00000000000000E+00   0.00000000000000E+00
     -2.29623104551931E-17  -1.33625425504741E-11  -1.33625655127845E-11  -2.20996461645019E-15
      3.73543495198903E-01
      8.00000000000000E-01   8.00000000000000E-01   0.00000000000000E+00   0.00000000000000E+00   1.35626606299382E-15
     -5.86300310898834E-18   1.35040305988483E-15   3.50355344236786E-15   0.00000000000000E+00  -3.27885711830871E-14
      0.00000000000000E+00   0.00000000000000E+00  -1.03618874475355E-18   3.27476648057994E-11   3.27476637696106E-11
     -1.28172032499386E-15  -1.86771747599451E+01  -1.86771747599451E+01   0.00000000000000E+00   0.00000000000000E+00
     -2.29627256946006E-17  -3.27489912099447E-11  -3.27490141726704E-11  -2.22183311737400E-15
      3.83543495198903E-01
      8.00000000000000E-01   8.00000000000000E-01   0.00000000000000E+00   0.00000000000000E+00   1.33120147248486E-15
     -3.54060859905047E-18   1.32766086388581E-15   3.49349933657809E-15   0.00000000000000E+00  -7.69658897799074E-14
      0.00000000000000E+00   0.00000000000000E+00  -1.03616244004109E-18   7.69805673806361E-11   7.69805663444737E-11
     -1.25957372888001E-15  -1.91771747599451E+01  -1.91771747599451E+01   0.00000000000000E+00   0.00000000000000E+00
     -2.29631496043263E-17  -7.69818710421893E-11  -7.69818940053389E-11  -2.23392560769808E-15
      3.93543495198903E-01
      8.00000000000000E-01   8.00000000000000E-01   0.00000000000000E+00   0.00000000000000E+00   1.28630348567572E-15
     -1.13402737436904E-17   1.27496321193203E-15   3.48385035864483E-15   0.00000000000000E+00  -1.73035484898980E-13
      0.00000000000000E+00   0.00000000000000E+00  -1.03611083582401E-18   1.73064760710820E-10   1.73064759674709E-10
     -1.23759397606589E-15  -1.96771747599451E+01  -1.96771747599450E+01   0.00000000000000E+00   0.00000000000000E+00
     -2.29635827357136E-17  -1.73066011674335E-10  -1.73066034637918E-10  -2.24625638257893E-15
      4.03543495198903E-01
      8.00000000000000E-01   8.00000000000000E-01   0.00000000000000E+00   0.00000000000000E+00   1.21708523686153E-15
     -2.43079254555178E-17   1.19277731140602E-15   3.47474541504572E-15   0.00000000000000E+00  -3.70777204106785E-13
      0.00000000000000E+00   0.00000000000000E+00  -1.03602035459104E-18   3.70779775860121E-10   3.70779774824101E-10
     -1.21589328567092E-15  -2.01771747599451E+01  -2.01771747599448E+01   0.00000000000000E+00   0.00000000000000E+00
     -2.29640260852375E-17  -3.70780944637382E-10  -3.70780967601408E-10  -2.25885212937480E-15
      4.13543495198903E-01
      8.00000000000000E-01   8.00000000000000E-01   0.00000000000000E+00   0.00000000000000E+00   1.12748951313225E-15
      1.34505868194548E-18   1.12883457181420E-15   3.46637401679972E-15   0.00000000000000E+00  -7.53861602999380E-13
      0.00000000000000E+00   0.00000000000000E+00  -1.03588500465621E-18   7.53819589332492E-10   7.53819588296607E-10
     -1.19461604876829E-15  -2.06771747599451E+01  -2.06771747599444E+01   0.00000000000000E+00   0.00000000000000E+00
     -2.29644813141971E-17  -7.53820694166695E-10  -7.53820717131176E-10  -2.27175796803143E-15
      4.23543495198903E-01
      8.00000000000000E-01   8.00000000000000E-01   0.00000000000000E+00   0.00000000000000E+00   1.02926696973497E-15
     -1.36741458773174E-17   1.01559282385766E-15   3.45897842721316E-15   0.00000000000000E+00  -1.44793228207666E-12
      0.00000000000000E+00   0.00000000000000E+00  -1.03571055558737E-18   1.44791720715032E-09   1.44791720611461E-09
     -1.17393671991997E-15  -2.11771747599451E+01  -2.11771747599437E+01   0.00000000000000E+00   0.00000000000000E+00
     -2.29649509078188E-17  -1.44791819874247E-09  -1.44791822170742E-09  -2.28504170729319E-15
      4.33543495198903E-01
      8.00000000000000E-01   8.00000000000000E-01   0.00000000000000E+00   0.00000000000000E+00   9.33932306207453E-16
      4.69180036889364E-18   9.38624106576346E-16   3.45283461737603E-15   0.00000000000000E+00  -2.61803423410055E-12
      0.00000000000000E+00   0.00000000000000E+00  -1.03550633731759E-18   2.61802022596918E-09   2.61802022493368E-09
     -1.15404260592509E-15  -2.16771747599451E+01  -2.16771747599425E+01   0.00000000000000E+00   0.00000000000000E+00
     -2.29654381193317E-17  -2.61802114059241E-09  -2.61802116355785E-09  -2.29879201145093E-15
      4.43543495198903E-01
      8.00000000000000E-01   8.00000000000000E-01   0.00000000000000E+00   0.00000000000000E+00   8.47643832845429E-16
     -2.03959019883785E-17   8.27247930857050E-16   3.44821014503737E-15   0.00000000000000E+00  -4.44895907033260E-12
      0.00000000000000E+00   0.00000000000000E+00  -1.03527609367897E-18   4.44898512823875E-09   4.44898512720347E-09
     -1.13510254597886E-15  -2.21771747599451E+01  -2.21771747599407E+01   0.00000000000000E+00   0.00000000000000E+00
     -2.29659465929232E-17  -4.44898593148548E-09  -4.44898595445143E-09  -2.31310759905851E-15
      4.53543495198903E-01
      8.00000000000000E-01   8.00000000000000E-01   0.00000000000000E+00   0.00000000000000E+00   7.72441091809927E-16
     -5.99657926387773E-18   7.66444512546049E-16   3.44531429992155E-15   0.00000000000000E+00  -7.11456887830665E-12
      0.00000000000000E+00   0.00000000000000E+00  -1.03501749946759E-18   7.11452765202755E-09   7.11452765099253E-09
     -1.11723404962353E-15  -2.26771747599451E+01  -2.26771747599380E+01   0.00000000000000E+00   0.00000000000000E+00
     -2.29664797602489E-17  -7.11452839447058E-09  -7.11452841743706E-09  -2.32808025029801E-15
      4.63543495198903E-01
      8.00000000000000E-01   8.00000000000000E-01   0.00000000000000E+00   0.00000000000000E+00   7.08192478117606E-16
      2.97174969588049E-17   7.37909975076411E-16   3.44426511391349E-15   0.00000000000000E+00  -1.07489569743457E-11