DF-ISE text

Info {
  version   = 1.0
  type      = xyplot
  datasets  = [
    "time"
    "Ntop OuterVoltage" "Ntop InnerVoltage" "Ntop QuasiFermiPotential" "Ntop DisplacementCurrent" "Ntop eCurrent"
    "Ntop hCurrent" "Ntop TotalCurrent" "Ntop Charge" "Ptop OuterVoltage" "Ptop InnerVoltage"
    "Ptop QuasiFermiPotential" "Ptop DisplacementCurrent" "Ptop eCurrent" "Ptop hCurrent" "Ptop TotalCurrent"
    "Ptop Charge" "Pbot OuterVoltage" "Pbot InnerVoltage" "Pbot QuasiFermiPotential" "Pbot DisplacementCurrent"
    "Pbot eCurrent" "Pbot hCurrent" "Pbot TotalCurrent" "Pbot Charge" ]
  functions = [
    Time
    OuterVoltage InnerVoltage QuasiFermiPotential DisplacementCurrent eCurrent
    hCurrent TotalCurrent Charge OuterVoltage InnerVoltage
    QuasiFermiPotential DisplacementCurrent eCurrent hCurrent TotalCurrent
    Charge OuterVoltage InnerVoltage QuasiFermiPotential DisplacementCurrent
    eCurrent hCurrent TotalCurrent Charge ]
}

Data {
      1.00000000000000E-03
      8.00000000000000E-01   8.00000000000000E-01   0.00000000000000E+00   0.00000000000000E+00   5.55990506740297E-16
      6.79070692795255E-19   5.56669577433092E-16   4.12382187750441E-15   0.00000000000000E+00   0.00000000000000E+00
      0.00000000000000E+00   0.00000000000000E+00  -1.03632318399039E-18  -6.24808645153951E-17  -6.35171876993855E-17
     -2.19823764818090E-15  -5.00000000000000E-02  -5.00000000000000E-02   0.00000000000000E+00   0.00000000000000E+00
     -2.29526236921531E-17  -4.70199766041553E-16  -4.93152389733706E-16  -1.92558422932351E-15
      2.91111111111111E-03
      8.00000000000000E-01   8.00000000000000E-01   0.00000000000000E+00   0.00000000000000E+00   5.87607837463483E-16
     -2.38478902490346E-19   5.87369358560993E-16   4.12470365472904E-15   0.00000000000000E+00   0.00000000000000E+00
      0.00000000000000E+00   0.00000000000000E+00  -1.03632318345789E-18  -6.23603526532924E-17  -6.33966758367503E-17
     -2.19823604623946E-15  -1.45555555555556E-01  -1.45555555555555E-01   0.00000000000000E+00   0.00000000000000E+00
     -2.29526526245231E-17  -5.01020030099720E-16  -5.23972682724243E-16  -1.92646760848958E-15
      6.56345679012346E-03
      8.00000000000000E-01   8.00000000000000E-01   0.00000000000000E+00   0.00000000000000E+00   6.44081762537588E-16
      8.51425987411698E-19   6.44933188525000E-16   4.12638490288034E-15   0.00000000000000E+00   0.00000000000000E+00
      0.00000000000000E+00   0.00000000000000E+00  -1.03632318180712E-18  -6.21455800336769E-17  -6.31819032154840E-17
     -2.19823108007703E-15  -3.28172839506173E-01  -3.28172839506173E-01   0.00000000000000E+00   0.00000000000000E+00
     -2.29527079291524E-17  -5.58798577380364E-16  -5.81751285309516E-16  -1.92815382280331E-15
      1.35434951989026E-02
      8.00000000000000E-01   8.00000000000000E-01   0.00000000000000E+00   0.00000000000000E+00   7.41241590615881E-16
     -1.12887092964312E-19   7.41128703522917E-16   4.12957758959204E-15   0.00000000000000E+00   0.00000000000000E+00
      0.00000000000000E+00   0.00000000000000E+00  -1.03632317423223E-18  -6.17924159239101E-17  -6.28287390981423E-17
     -2.19820829303899E-15  -6.77174759945130E-01  -6.77174759945130E-01   0.00000000000000E+00   0.00000000000000E+00
     -2.29528136278523E-17  -6.55347150796921E-16  -6.78299964424774E-16  -1.93136929655305E-15
      2.35434951989026E-02
      8.00000000000000E-01   8.00000000000000E-01   0.00000000000000E+00   0.00000000000000E+00   8.63039555224148E-16
     -6.20490730775104E-19   8.62419064493373E-16   4.13405772873346E-15   0.00000000000000E+00   0.00000000000000E+00
      0.00000000000000E+00   0.00000000000000E+00  -1.03632313647572E-18  -6.14367602999040E-17  -6.24730834363797E-17
     -2.19809473697374E-15  -1.17717475994513E+00  -1.17717475994513E+00   0.00000000000000E+00   0.00000000000000E+00
     -2.29529650589864E-17  -7.76993015998006E-16  -7.99945981056993E-16  -1.93596299175970E-15
      3.35434951989026E-02
      8.00000000000000E-01   8.00000000000000E-01   0.00000000000000E+00   0.00000000000000E+00   9.67738480277484E-16
     -3.56588119446297E-18   9.64172599083021E-16   4.13826861289102E-15   0.00000000000000E+00   0.00000000000000E+00
      0.00000000000000E+00   0.00000000000000E+00  -1.03632300762361E-18  -6.12520592487651E-17  -6.22883822563887E-17
     -2.19770725296837E-15  -1.67717475994513E+00  -1.67717475994513E+00   0.00000000000000E+00   0.00000000000000E+00
     -2.29531170433341E-17  -8.78931099783297E-16  -9.01884216826631E-16  -1.94056135992265E-15
      4.35434951989026E-02
      8.00000000000000E-01   8.00000000000000E-01   0.00000000000000E+00   0.00000000000000E+00   1.05286602685361E-15
     -1.64335964099489E-18   1.05122266721262E-15   4.14185643143217E-15   0.00000000000000E+00   0.00000000000000E+00
      0.00000000000000E+00   0.00000000000000E+00  -1.03632265236169E-18  -6.13060401131882E-17  -6.23423627655499E-17
     -2.19663765320139E-15  -2.17717475994513E+00  -2.17717475994513E+00   0.00000000000000E+00   0.00000000000000E+00
     -2.29532713147199E-17  -9.65927033132350E-16  -9.88880304447069E-16  -1.94521877823078E-15
      5.35434951989026E-02
      8.00000000000000E-01   8.00000000000000E-01   0.00000000000000E+00   0.00000000000000E+00   1.12151424571294E-15
     -2.95954423416126E-18   1.11855470147878E-15   4.14421985744394E-15   0.00000000000000E+00   0.00000000000000E+00
      0.00000000000000E+00   0.00000000000000E+00  -1.03632185580684E-18  -6.17153848761011E-17  -6.27517067319079E-17
     -2.19422803821055E-15  -2.67717475994513E+00  -2.67717475994513E+00   0.00000000000000E+00   0.00000000000000E+00
     -2.29534297180855E-17  -1.03284956502878E-15  -1.05580299474687E-15  -1.94999181923338E-15
      6.35434951989026E-02
      8.00000000000000E-01   8.00000000000000E-01   0.00000000000000E+00   0.00000000000000E+00   1.17647449591184E-15
     -1.63518835850209E-18   1.17483930755333E-15   4.14470321933077E-15   0.00000000000000E+00   0.00000000000000E+00
      0.00000000000000E+00   0.00000000000000E+00  -1.03632040471346E-18  -6.26740136435092E-17  -6.37103340482226E-17
     -2.18977879677244E-15  -3.17717475994513E+00  -3.17717475994513E+00   0.00000000000000E+00   0.00000000000000E+00
     -2.29535937026791E-17  -1.08817537980243E-15  -1.11112897350511E-15  -1.95492442255833E-15
      7.35434951989026E-02
      8.00000000000000E-01   8.00000000000000E-01   0.00000000000000E+00   0.00000000000000E+00   1.21991274232354E-15
      3.51197966273970E-18   1.22342472198628E-15   4.14303657912977E-15   0.00000000000000E+00   0.00000000000000E+00
      0.00000000000000E+00   0.00000000000000E+00  -1.03631824506030E-18  -6.44212045892979E-17  -6.54575228343582E-17
     -2.18298795568055E-15  -3.67717475994513E+00  -3.67717475994513E+00   0.00000000000000E+00   0.00000000000000E+00
     -2.29537643364804E-17  -1.13501343481544E-15  -1.15796719915192E-15  -1.96004862344922E-15
      8.35434951989026E-02
      8.00000000000000E-01   8.00000000000000E-01   0.00000000000000E+00   0.00000000000000E+00   1.25395123841671E-15
      2.06532045590639E-18   1.25601655887262E-15   4.13953360255876E-15   0.00000000000000E+00   0.00000000000000E+00
      0.00000000000000E+00   0.00000000000000E+00  -1.03631552651387E-18  -6.70853983107360E-17  -6.81217138372499E-17
     -2.17414521656817E-15  -4.17717475994513E+00  -4.17717475994513E+00   0.00000000000000E+00   0.00000000000000E+00
     -2.29539424281379E-17  -1.16494090260723E-15  -1.18789484503537E-15  -1.96538838599058E-15
      9.35434951989026E-02
      8.00000000000000E-01   8.00000000000000E-01   0.00000000000000E+00   0.00000000000000E+00   1.28043573012074E-15
     -7.85879264057306E-19   1.27964985085668E-15   4.13472052663220E-15   0.00000000000000E+00   0.00000000000000E+00
      0.00000000000000E+00   0.00000000000000E+00  -1.03631244675951E-18  -7.03869761501336E-17  -7.14232885968931E-17
     -2.16376056031829E-15  -4.67717475994513E+00  -4.67717475994513E+00   0.00000000000000E+00   0.00000000000000E+00
     -2.29541285357159E-17  -1.18527243372407E-15  -1.20822656225979E-15  -1.97095996631392E-15
      1.03543495198903E-01
      8.00000000000000E-01   8.00000000000000E-01   0.00000000000000E+00   0.00000000000000E+00   1.30014918730465E-15
      3.04481268261561E-18   1.30319399998727E-15   4.12899212031723E-15   0.00000000000000E+00   0.00000000000000E+00
      0.00000000000000E+00   0.00000000000000E+00  -1.03630913808947E-18  -7.33193837193875E-17  -7.43556928574770E-17
     -2.15222048322911E-15  -5.17717475994513E+00  -5.17717475994513E+00   0.00000000000000E+00   0.00000000000000E+00
     -2.29543229548982E-17  -1.20588398417489E-15  -1.22883830712979E-15  -1.97677163708811E-15
      1.13543495198903E-01
      8.00000000000000E-01   8.00000000000000E-01   0.00000000000000E+00   0.00000000000000E+00   1.31405189370738E-15
      2.34136552333941E-18   1.31639325923072E-15   4.12257988751668E-15   0.00000000000000E+00   0.00000000000000E+00
      0.00000000000000E+00   0.00000000000000E+00  -1.03630567105606E-18  -7.50831547581604E-17  -7.61194604292165E-17
     -2.13975362525168E-15  -5.67717475994513E+00  -5.67717475994513E+00   0.00000000000000E+00   0.00000000000000E+00
     -2.29545258030331E-17  -1.21731927299847E-15  -1.24027379880150E-15  -1.98282626226501E-15
      1.23543495198903E-01
      8.00000000000000E-01   8.00000000000000E-01   0.00000000000000E+00   0.00000000000000E+00   1.32395376312616E-15
      1.60563208840731E-18   1.32555939521457E-15   4.11561539298595E-15   0.00000000000000E+00   0.00000000000000E+00
      0.00000000000000E+00   0.00000000000000E+00  -1.03630208293358E-18  -7.58261366775456E-17  -7.68624387604792E-17
     -2.12649154424212E-15  -6.17717475994513E+00  -6.17717475994513E+00   0.00000000000000E+00   0.00000000000000E+00
     -2.29547371033334E-17  -1.22574221935076E-15  -1.24869695645409E-15  -1.98912384874383E-15
      1.33543495198903E-01
      8.00000000000000E-01   8.00000000000000E-01   0.00000000000000E+00   0.00000000000000E+00   1.33144640294227E-15
      2.82053301305083E-18   1.33426693595532E-15   4.10817688546057E-15   0.00000000000000E+00   0.00000000000000E+00
      0.00000000000000E+00   0.00000000000000E+00  -1.03629839509917E-18  -7.59487012425400E-17  -7.69849996376392E-17
     -2.11251388169665E-15  -6.67717475994513E+00  -6.67717475994513E+00   0.00000000000000E+00   0.00000000000000E+00
     -2.29549568330994E-17  -1.23432697948458E-15  -1.25728193631768E-15  -1.99566300376392E-15
      1.43543495198903E-01
      8.00000000000000E-01   8.00000000000000E-01   0.00000000000000E+00   0.00000000000000E+00   1.33745627359587E-15
      1.36887102110118E-19   1.33759316069798E-15   4.10031350902812E-15   0.00000000000000E+00   0.00000000000000E+00
      0.00000000000000E+00   0.00000000000000E+00  -1.03629462110708E-18  -7.57354909517045E-17  -7.67717855728116E-17
     -2.09787185232557E-15  -7.17717475994513E+00  -7.17717475994513E+00   0.00000000000000E+00   0.00000000000000E+00
     -2.29551849476231E-17  -1.23786619017755E-15  -1.26082137512517E-15  -2.00244165670254E-15
      1.53543495198903E-01
      8.00000000000000E-01   8.00000000000000E-01   0.00000000000000E+00   0.00000000000000E+00   1.34245438744307E-15
     -1.80404362979722E-18   1.34065034381327E-15   4.09205720525154E-15   0.00000000000000E+00   0.00000000000000E+00
      0.00000000000000E+00   0.00000000000000E+00  -1.03629077032403E-18  -7.52961563212700E-17  -7.63324470915940E-17
     -2.08259979127447E-15  -7.67717475994513E+00  -7.67717475994513E+00   0.00000000000000E+00   0.00000000000000E+00
     -2.29554213919473E-17  -1.24136247532973E-15  -1.26431789672168E-15  -2.00945741397708E-15
      1.63543495198903E-01
      8.00000000000000E-01   8.00000000000000E-01   0.00000000000000E+00   0.00000000000000E+00   1.34668664112430E-15
     -7.24931134292656E-18   1.33943732978137E-15   4.08342866857859E-15   0.00000000000000E+00   0.00000000000000E+00
      0.00000000000000E+00   0.00000000000000E+00  -1.03628684964914E-18  -7.46857179903001E-17  -7.57220048399493E-17
     -2.06672093067523E-15  -8.17717475994513E+00  -8.17717475994513E+00   0.00000000000000E+00   0.00000000000000E+00
     -2.29556661067896E-17  -1.24075965883464E-15  -1.26371532494143E-15  -2.01670773790336E-15
      1.73543495198903E-01
      8.00000000000000E-01   8.00000000000000E-01   0.00000000000000E+00   0.00000000000000E+00   1.35030776540749E-15
      1.10167249036934E-17   1.36132449031119E-15   4.07444033678996E-15   0.00000000000000E+00   0.00000000000000E+00
      0.00000000000000E+00   0.00000000000000E+00  -1.03628286438714E-18  -7.39601401669016E-17  -7.49964230312887E-17
     -2.05025030065429E-15  -8.67717475994513E+00  -8.67717475994513E+00   0.00000000000000E+00   0.00000000000000E+00
     -2.29559190314853E-17  -1.26337214824841E-15  -1.28632806727990E-15  -2.02419003613568E-15
      1.83543495198903E-01
      8.00000000000000E-01   8.00000000000000E-01   0.00000000000000E+00   0.00000000000000E+00   1.35344116643671E-15
     -1.19538746400880E-17   1.34148729179663E-15   4.06509771207630E-15   0.00000000000000E+00   0.00000000000000E+00
      0.00000000000000E+00   0.00000000000000E+00  -1.03627881871353E-18  -7.30883216489756E-17  -7.41246004676891E-17
     -2.03319601272588E-15  -9.17717475994513E+00  -9.17717475994513E+00   0.00000000000000E+00   0.00000000000000E+00
     -2.29561801052245E-17  -1.24440651122371E-15  -1.26736269132894E-15  -2.03190169935042E-15
      1.93543495198903E-01
      8.00000000000000E-01   8.00000000000000E-01   0.00000000000000E+00   0.00000000000000E+00   1.35618332431818E-15
      1.68836409601204E-17   1.37306696527830E-15   4.05539956248107E-15   0.00000000000000E+00   0.00000000000000E+00
      0.00000000000000E+00   0.00000000000000E+00  -1.03627471591934E-18  -7.20509313275790E-17  -7.30872060434984E-17
     -2.01555945870708E-15  -9.67717475994513E+00  -9.67717475994513E+00   0.00000000000000E+00   0.00000000000000E+00
     -2.29564492671034E-17  -1.27702330996770E-15  -1.29997975923480E-15  -2.03984010377400E-15
      2.03543495198903E-01
      8.00000000000000E-01   8.00000000000000E-01   0.00000000000000E+00   0.00000000000000E+00   1.35860910993908E-15
      7.30436764401838E-18   1.36591347758310E-15   4.04533727301313E-15   0.00000000000000E+00   0.00000000000000E+00
      0.00000000000000E+00   0.00000000000000E+00  -1.03627055852729E-18  -7.06310417717137E-17  -7.16673123302410E-17
     -1.99733468472411E-15  -1.01771747599451E+01  -1.01771747599451E+01   0.00000000000000E+00   0.00000000000000E+00
     -2.29567264553061E-17  -1.27128943879755E-15  -1.29424616525286E-15  -2.04800258828901E-15
      2.13543495198903E-01
      8.00000000000000E-01   8.00000000000000E-01   0.00000000000000E+00   0.00000000000000E+00   1.36080044763233E-15
     -1.02523673604598E-17   1.35054808027187E-15   4.03489363724324E-15   0.00000000000000E+00   0.00000000000000E+00
      0.00000000000000E+00   0.00000000000000E+00  -1.03626634834382E-18  -6.81422263029305E-17  -6.91784926512743E-17
     -1.97850721928608E-15  -1.06771747599451E+01  -1.06771747599451E+01   0.00000000000000E+00   0.00000000000000E+00
     -2.29570116058296E-17  -1.25841257601477E-15  -1.28136958762060E-15  -2.05638641795717E-15
      2.23543495198903E-01
      8.00000000000000E-01   8.00000000000000E-01   0.00000000000000E+00   0.00000000000000E+00   1.36282416114060E-15
     -3.48217868306456E-18   1.35934198245753E-15   4.02404181907713E-15   0.00000000000000E+00   0.00000000000000E+00
      0.00000000000000E+00   0.00000000000000E+00  -1.03626208653085E-18  -6.20149755032221E-17  -6.30512375897529E-17
     -1.95905305966432E-15  -1.11771747599451E+01  -1.11771747599451E+01   0.00000000000000E+00   0.00000000000000E+00
     -2.29573046515974E-17  -1.27333344021618E-15  -1.29629074486778E-15  -2.06498875941281E-15
      2.33543495198903E-01
      8.00000000000000E-01   8.00000000000000E-01   0.00000000000000E+00   0.00000000000000E+00   1.36472553918300E-15
      6.96381547472464E-20   1.36479517733775E-15   4.01274652084858E-15   0.00000000000000E+00   0.00000000000000E+00
      0.00000000000000E+00   0.00000000000000E+00  -1.03625777386215E-18  -4.33710109823009E-17  -4.44072687561630E-17
     -1.93893979069297E-15  -1.16771747599451E+01  -1.16771747599451E+01   0.00000000000000E+00   0.00000000000000E+00
     -2.29576055240868E-17  -1.29743030305750E-15  -1.32038790858159E-15  -2.07380673015561E-15
      2.43543495198903E-01
      8.00000000000000E-01   8.00000000000000E-01   0.00000000000000E+00   0.00000000000000E+00   1.36653805664126E-15
     -1.09130487070307E-17   1.35562500793423E-15   4.00097204024864E-15   0.00000000000000E+00   0.00000000000000E+00
      0.00000000000000E+00   0.00000000000000E+00  -1.03625341147849E-18   1.86833069719280E-17   1.76470535604495E-17
     -1.91813438807679E-15  -1.21771747599451E+01  -1.21771747599451E+01   0.00000000000000E+00   0.00000000000000E+00
     -2.29579141619644E-17  -1.35031414733271E-15  -1.37327206149468E-15  -2.08283765217185E-15
      2.53543495198903E-01
      8.00000000000000E-01   8.00000000000000E-01   0.00000000000000E+00   0.00000000000000E+00   1.36828149438899E-15
     -7.12935509606849E-18   1.36115213929292E-15   3.98870391385807E-15   0.00000000000000E+00   0.00000000000000E+00
      0.00000000000000E+00   0.00000000000000E+00  -1.03624900249142E-18   2.28984722050141E-16   2.27948473047649E-16
     -1.89662423781515E-15  -1.26771747599451E+01  -1.26771747599451E+01   0.00000000000000E+00   0.00000000000000E+00
     -2.29582305325023E-17  -1.56614238180807E-15  -1.58910061234057E-15  -2.09207967604292E-15
      2.63543495198903E-01
      8.00000000000000E-01   8.00000000000000E-01   0.00000000000000E+00   0.00000000000000E+00   1.36995415925323E-15
     -1.24549058051394E-17   1.35749925344809E-15   3.97598253105114E-15   0.00000000000000E+00   0.00000000000000E+00
      0.00000000000000E+00   0.00000000000000E+00  -1.03624455405327E-18   9.35284495643088E-16   9.34248251089035E-16
     -1.87444985395157E-15  -1.31771747599451E+01  -1.31771747599451E+01   0.00000000000000E+00   0.00000000000000E+00
     -2.29585546625387E-17  -2.26878894987459E-15  -2.29174750453713E-15  -2.10153267709957E-15
      2.73543495198903E-01
      8.00000000000000E-01   8.00000000000000E-01   0.00000000000000E+00   0.00000000000000E+00   1.37152838010542E-15
     -1.93834756634597E-18   1.36959003253908E-15   3.96292143060294E-15   0.00000000000000E+00   0.00000000000000E+00
      0.00000000000000E+00   0.00000000000000E+00  -1.03624007784068E-18   3.25747584404447E-15   3.25643960396663E-15
     -1.85172280331729E-15  -1.36771747599451E+01  -1.36771747599451E+01   0.00000000000000E+00   0.00000000000000E+00
     -2.29588866517467E-17  -4.60307074985394E-15  -4.62602963650569E-15  -2.11119862728565E-15
      2.83543495198903E-01
      8.00000000000000E-01   8.00000000000000E-01   0.00000000000000E+00   0.00000000000000E+00   1.37295604245052E-15
     -2.29249538844586E-17   1.35003108856606E-15   3.94967835730240E-15   0.00000000000000E+00   0.00000000000000E+00
      0.00000000000000E+00   0.00000000000000E+00  -1.03623558715604E-18   1.06807697673895E-14   1.06797335318024E-14
     -1.82859772069576E-15  -1.41771747599451E+01  -1.41771747599451E+01   0.00000000000000E+00   0.00000000000000E+00
     -2.29592266402411E-17  -1.20068053937282E-14  -1.20297646203684E-14  -2.12108063660665E-15
      2.93543495198903E-01
      8.00000000000000E-01   8.00000000000000E-01   0.00000000000000E+00   0.00000000000000E+00   1.37417756945217E-15
     -1.08526744871633E-17   1.36332489496500E-15   3.93640071991190E-15   0.00000000000000E+00   0.00000000000000E+00
      0.00000000000000E+00   0.00000000000000E+00  -1.03623109246811E-18   3.36574782405878E-14   3.36564420094954E-14
     -1.80521932620321E-15  -1.46771747599451E+01  -1.46771747599451E+01   0.00000000000000E+00   0.00000000000000E+00
     -2.29595747551528E-17  -3.49968073297053E-14  -3.50197669044605E-14  -2.13118139370869E-15
      3.03543495198903E-01
      8.00000000000000E-01   8.00000000000000E-01   0.00000000000000E+00   0.00000000000000E+00   1.37511935751977E-15
      1.17688118330895E-17   1.38688816935286E-15   3.92319526898617E-15   0.00000000000000E+00  -9.18447372075268E-17
      0.00000000000000E+00   0.00000000000000E+00  -1.03622659704676E-18   1.02354323459192E-13   1.02353287232595E-13
     -1.78169289230822E-15  -1.51771747599451E+01  -1.51771747599451E+01   0.00000000000000E+00   0.00000000000000E+00
     -2.29599310832505E-17  -1.03717215470864E-13  -1.03740175401948E-13  -2.14150237667795E-15
      3.13543495198903E-01
      8.00000000000000E-01   8.00000000000000E-01   0.00000000000000E+00   0.00000000000000E+00   1.37566959067693E-15
      2.26781347947378E-17   1.39834772547167E-15   3.91013014474681E-15   0.00000000000000E+00  -2.75534211622580E-16
      0.00000000000000E+00   0.00000000000000E+00  -1.03622206960178E-18   3.00458780141814E-13   3.00457743919744E-13
     -1.75808617225412E-15  -1.56771747599451E+01  -1.56771747599451E+01   0.00000000000000E+00   0.00000000000000E+00
     -2.29602956747447E-17  -3.01833131349540E-13  -3.01856091645214E-13  -2.15204397249270E-15
      3.23543495198903E-01
      8.00000000000000E-01   8.00000000000000E-01   0.00000000000000E+00   0.00000000000000E+00   1.37561874924377E-15
     -2.14548982322142E-17   1.35416385101156E-15   3.89724885901469E-15   0.00000000000000E+00  -8.26602634867741E-16
      0.00000000000000E+00   0.00000000000000E+00  -1.03621702719302E-18   8.50843128135870E-13   8.50842091918843E-13
     -1.73444294096924E-15  -1.61771747599451E+01  -1.61771747599451E+01   0.00000000000000E+00   0.00000000000000E+00
     -2.29606685582622E-17  -8.52173295101296E-13  -8.52196255769854E-13  -2.16280591804545E-15
      3.33543495198903E-01
      8.00000000000000E-01   8.00000000000000E-01   0.00000000000000E+00   0.00000000000000E+00   1.37452656635998E-15
      2.19170661722184E-17   1.39644363253220E-15   3.88458297103603E-15   0.00000000000000E+00  -2.29611843018817E-15
      0.00000000000000E+00   0.00000000000000E+00  -1.03621192101660E-18   2.32243119509879E-12   2.32243015888687E-12
     -1.71079522906494E-15  -1.66771747599451E+01  -1.66771747599451E+01   0.00000000000000E+00   0.00000000000000E+00
     -2.29610497560385E-17  -2.32380364146964E-12  -2.32382660251940E-12  -2.17378774197110E-15
      3.43543495198903E-01
      8.00000000000000E-01   8.00000000000000E-01   0.00000000000000E+00   0.00000000000000E+00   1.37144014457353E-15
      1.60097720187132E-17   1.38744991659224E-15   3.87216113231747E-15   0.00000000000000E+00  -6.06175265569677E-15
      0.00000000000000E+00   0.00000000000000E+00  -1.03620629476971E-18   6.10458775581231E-12   6.10458671960601E-12
     -1.68717190178593E-15  -1.71771747599451E+01  -1.71771747599451E+01   0.00000000000000E+00   0.00000000000000E+00
     -2.29614393001284E-17  -6.10595120808332E-12  -6.10597416952262E-12  -2.18498923053153E-15
      3.53543495198903E-01
      8.00000000000000E-01   8.00000000000000E-01   0.00000000000000E+00   0.00000000000000E+00   1.36436178525870E-15
     -2.13609772198070E-17   1.34300080803890E-15   3.86001611708742E-15   0.00000000000000E+00  -1.54299158508645E-14
      0.00000000000000E+00   0.00000000000000E+00  -1.03619674613913E-18   1.54348509768177E-11   1.54348499406210E-11
     -1.66360500453208E-15  -1.76771747599451E+01  -1.76771747599451E+01   0.00000000000000E+00   0.00000000000000E+00
     -2.29618372565436E-17  -1.54361699795919E-11  -1.54361929414292E-11  -2.19641111255535E-15
      3.63543495198903E-01
      8.00000000000000E-01   8.00000000000000E-01   0.00000000000000E+00   0.00000000000000E+00   1.34944047005733E-15
     -1.48240430144128E-17   1.33461642704292E-15   3.84819191584034E-15   0.00000000000000E+00  -3.74726527806709E-14
      0.00000000000000E+00   0.00000000000000E+00  -1.03617813170254E-18   3.74853459053919E-11   3.74853448692138E-11
     -1.64013563773368E-15  -1.81771747599451E+01  -1.81771747599451E+01   0.00000000000000E+00   0.00000000000000E+00
     -2.29622437684703E-17  -3.74866565233974E-11  -3.74866794856412E-11  -2.20805627810667E-15
      3.73543495198903E-01
      8.00000000000000E-01   8.00000000000000E-01   0.00000000000000E+00   0.00000000000000E+00   1.32032133183568E-15
     -3.08639542501497E-18   1.31723493641066E-15   3.83675264214249E-15   0.00000000000000E+00  -8.72525003471504E-14
      0.00000000000000E+00   0.00000000000000E+00  -1.03613927224988E-18   8.72790171459682E-11   8.72790161098289E-11
     -1.61682067092114E-15  -1.86771747599451E+01  -1.86771747599451E+01   0.00000000000000E+00   0.00000000000000E+00
     -2.29626591343843E-17  -8.72803103821069E-11  -8.72803333447660E-11  -2.21993197122134E-15
      3.83543495198903E-01
      8.00000000000000E-01   8.00000000000000E-01   0.00000000000000E+00   0.00000000000000E+00   1.26921336743951E-15
     -2.56685250296344E-17   1.24354484240987E-15   3.82579429156119E-15   0.00000000000000E+00  -1.94343463931127E-13
      0.00000000000000E+00   0.00000000000000E+00  -1.03606228202964E-18   1.94329427775230E-10   1.94329426739168E-10
     -1.59374084761046E-15  -1.91771747599451E+01  -1.91771747599449E+01   0.00000000000000E+00   0.00000000000000E+00
     -2.29630839387898E-17  -1.94330647320925E-10  -1.94330670284009E-10  -2.23205344395073E-15
      3.93543495198903E-01
      8.00000000000000E-01   8.00000000000000E-01   0.00000000000000E+00   0.00000000000000E+00   1.19162984933045E-15
      2.83541807663148E-18   1.19446526740708E-15   3.81545858749939E-15   0.00000000000000E+00  -4.12382870061795E-13
      0.00000000000000E+00   0.00000000000000E+00  -1.03592854398161E-18   4.12379518388726E-10   4.12379517352797E-10
     -1.57100933191275E-15  -1.96771747599451E+01  -1.96771747599447E+01   0.00000000000000E+00   0.00000000000000E+00
     -2.29635192428891E-17  -4.12380688854543E-10  -4.12380711818062E-10  -2.24444925558665E-15
      4.03543495198903E-01
      8.00000000000000E-01   8.00000000000000E-01   0.00000000000000E+00   0.00000000000000E+00   1.09230048362115E-15
      2.47694079065734E-18   1.09477742441181E-15   3.80594437605605E-15   0.00000000000000E+00  -8.30643803304872E-13
      0.00000000000000E+00   0.00000000000000E+00  -1.03573181484350E-18   8.30671552494835E-10   8.30671551459103E-10
     -1.54877705614152E-15  -2.01771747599451E+01  -2.01771747599443E+01   0.00000000000000E+00   0.00000000000000E+00
     -2.29639668042757E-17  -8.30672623272556E-10  -8.30672646236523E-10  -2.25716731991453E-15
      4.13543495198903E-01
      8.00000000000000E-01   8.00000000000000E-01   0.00000000000000E+00   0.00000000000000E+00   9.84078501796966E-16
      2.04150729590497E-17   1.00449357475602E-15   3.79750708306407E-15   0.00000000000000E+00  -1.58156637471361E-12
      0.00000000000000E+00   0.00000000000000E+00  -1.03548297601545E-18   1.58158564052859E-09   1.58158563949311E-09
     -1.52722823719403E-15  -2.06771747599451E+01  -2.06771747599436E+01   0.00000000000000E+00   0.00000000000000E+00
     -2.29644292247601E-17  -1.58158662102224E-09  -1.58158664398667E-09  -2.27027884587003E-15
      4.23543495198903E-01
      8.00000000000000E-01   8.00000000000000E-01   0.00000000000000E+00   0.00000000000000E+00   8.79689320983987E-16
     -1.11448914096358E-17   8.68544429574351E-16   3.79043561554426E-15   0.00000000000000E+00  -2.83653286391726E-12
      0.00000000000000E+00   0.00000000000000E+00  -1.03519759385378E-18   2.83655714179244E-09   2.83655714075724E-09
     -1.50655982648702E-15  -2.11771747599451E+01  -2.11771747599423E+01   0.00000000000000E+00   0.00000000000000E+00
     -2.29649098693124E-17  -2.83655798633679E-09  -2.83655800930170E-09  -2.28387578905723E-15
      4.33543495198903E-01
      8.00000000000000E-01   8.00000000000000E-01   0.00000000000000E+00   0.00000000000000E+00   7.86506789786193E-16
      1.38057702728193E-17   8.00312560059012E-16   3.78500587561992E-15   0.00000000000000E+00  -4.78520265324935E-12
      0.00000000000000E+00   0.00000000000000E+00  -1.03488333421924E-18   4.78517618636306E-09   4.78517618532818E-09
     -1.48694669396978E-15  -2.16771747599451E+01  -2.16771747599404E+01   0.00000000000000E+00   0.00000000000000E+00
     -2.29654124589842E-17  -4.78517696267534E-09  -4.78517698564075E-09  -2.29805918165015E-15
      4.43543495198903E-01
      8.00000000000000E-01   8.00000000000000E-01   0.00000000000000E+00   0.00000000000000E+00   7.06752782406244E-16
     -1.96110991927706E-18   7.04791672486967E-16   3.78142820508262E-15   0.00000000000000E+00  -7.60309103551348E-12
      0.00000000000000E+00   0.00000000000000E+00  -1.03453819931361E-18   7.60309628920798E-09   7.60309628817344E-09
     -1.46850660523049E-15  -2.21771747599451E+01  -2.21771747599375E+01   0.00000000000000E+00   0.00000000000000E+00
     -2.29659404493684E-17  -7.60309696999916E-09  -7.60309699296510E-09  -2.31292159985213E-15
      4.53543495198903E-01
      8.00000000000000E-01   8.00000000000000E-01   0.00000000000000E+00   0.00000000000000E+00   6.39260826679481E-16
     -9.32230189011407E-18   6.29938524789367E-16   3.77981450028984E-15   0.00000000000000E+00  -1.14238321033466E-11
      0.00000000000000E+00   0.00000000000000E+00  -1.03415385067399E-18   1.14237969939348E-08   1.14237969929006E-08
     -1.45128247790883E-15  -2.26771747599451E+01  -2.26771747599337E+01   0.00000000000000E+00   0.00000000000000E+00
     -2.29664964867554E-17  -1.14237975998725E-08  -1.14237976228390E-08  -2.32853202238101E-15
      4.63543495198903E-01
      8.00000000000000E-01   8.00000000000000E-01   0.00000000000000E+00   0.00000000000000E+00   5.81514801945992E-16
      3.86170146477901E-18   5.85376503410771E-16   3.78017750199888E-15   0.00000000000000E+00  -1.63263204860100E-11