DF-ISE text

Info {
  version   = 1.0
  type      = xyplot
  datasets  = [
    "time"
    "Ntop OuterVoltage" "Ntop InnerVoltage" "Ntop QuasiFermiPotential" "Ntop DisplacementCurrent" "Ntop eCurrent"
    "Ntop hCurrent" "Ntop TotalCurrent" "Ntop Charge" "Ptop OuterVoltage" "Ptop InnerVoltage"
    "Ptop QuasiFermiPotential" "Ptop DisplacementCurrent" "Ptop eCurrent" "Ptop hCurrent" "Ptop TotalCurrent"
    "Ptop Charge" "Pbot OuterVoltage" "Pbot InnerVoltage" "Pbot QuasiFermiPotential" "Pbot DisplacementCurrent"
    "Pbot eCurrent" "Pbot hCurrent" "Pbot TotalCurrent" "Pbot Charge" ]
  functions = [
    Time
    OuterVoltage InnerVoltage QuasiFermiPotential DisplacementCurrent eCurrent
    hCurrent TotalCurrent Charge OuterVoltage InnerVoltage
    QuasiFermiPotential DisplacementCurrent eCurrent hCurrent TotalCurrent
    Charge OuterVoltage InnerVoltage QuasiFermiPotential DisplacementCurrent
    eCurrent hCurrent TotalCurrent Charge ]
}

Data {
      1.00000000000000E-03
      8.00000000000000E-01   8.00000000000000E-01   0.00000000000000E+00   0.00000000000000E+00   5.55627795639577E-16
      6.28613920848427E-19   5.56256409560425E-16   3.70162154701957E-15   0.00000000000000E+00   0.00000000000000E+00
      0.00000000000000E+00   0.00000000000000E+00  -1.03632326419617E-18  -6.21107193729865E-17  -6.31470426371827E-17
     -1.77603731493518E-15  -5.00000000000000E-02  -5.00000000000000E-02   0.00000000000000E+00   0.00000000000000E+00
     -2.29526236922434E-17  -4.70156743230999E-16  -4.93109366923243E-16  -1.92558423208439E-15
      2.91111111111111E-03
      8.00000000000000E-01   8.00000000000000E-01   0.00000000000000E+00   0.00000000000000E+00   5.87244973860201E-16
      7.56198875355955E-20   5.87320593747736E-16   3.70250335141696E-15   0.00000000000000E+00   0.00000000000000E+00
      0.00000000000000E+00   0.00000000000000E+00  -1.03632326366820E-18  -6.19888788535140E-17  -6.30252021171822E-17
     -1.77603573891923E-15  -1.45555555555556E-01  -1.45555555555555E-01   0.00000000000000E+00   0.00000000000000E+00
     -2.29526526246546E-17  -5.01342739005900E-16  -5.24295391630554E-16  -1.92646761249772E-15
      6.56345679012346E-03
      8.00000000000000E-01   8.00000000000000E-01   0.00000000000000E+00   0.00000000000000E+00   6.43718428577652E-16
     -3.91120420956776E-19   6.43327308156695E-16   3.70418468383824E-15   0.00000000000000E+00   0.00000000000000E+00
      0.00000000000000E+00   0.00000000000000E+00  -1.03632326203142E-18  -6.17660622375343E-17  -6.28023854995657E-17
     -1.77603085317125E-15  -3.28172839506173E-01  -3.28172839506173E-01   0.00000000000000E+00   0.00000000000000E+00
     -2.29527079294104E-17  -5.57572214727719E-16  -5.80524922657129E-16  -1.92815383066699E-15
      1.35434951989026E-02
      8.00000000000000E-01   8.00000000000000E-01   0.00000000000000E+00   0.00000000000000E+00   7.40876132314877E-16
      1.09611478930581E-18   7.41972247104183E-16   3.70737775804788E-15   0.00000000000000E+00   0.00000000000000E+00
      0.00000000000000E+00   0.00000000000000E+00  -1.03632325452112E-18  -6.14310955676755E-17  -6.24674188221966E-17
     -1.77600843606828E-15  -6.77174759945130E-01  -6.77174759945130E-01   0.00000000000000E+00   0.00000000000000E+00
     -2.29528136286892E-17  -6.56552014653298E-16  -6.79504828281987E-16  -1.93136932197959E-15
      2.35434951989026E-02
      8.00000000000000E-01   8.00000000000000E-01   0.00000000000000E+00   0.00000000000000E+00   8.62664022323289E-16
     -8.03858001414718E-19   8.61860164321874E-16   3.71185984548224E-15   0.00000000000000E+00   0.00000000000000E+00
      0.00000000000000E+00   0.00000000000000E+00  -1.03632321709344E-18  -6.10714356723201E-17  -6.21077588894135E-17
     -1.77589674296818E-15  -1.17717475994513E+00  -1.17717475994513E+00   0.00000000000000E+00   0.00000000000000E+00
     -2.29529650626426E-17  -7.76799440369818E-16  -7.99752405432461E-16  -1.93596310251406E-15
      3.35434951989026E-02
      8.00000000000000E-01   8.00000000000000E-01   0.00000000000000E+00   0.00000000000000E+00   9.67333274505869E-16
     -1.06243580171227E-18   9.66270838704157E-16   3.71607753206870E-15   0.00000000000000E+00   0.00000000000000E+00
      0.00000000000000E+00   0.00000000000000E+00  -1.03632308942415E-18  -6.08867213987194E-17  -6.19230444881436E-17
     -1.77551579128513E-15  -1.67717475994513E+00  -1.67717475994513E+00   0.00000000000000E+00   0.00000000000000E+00
     -2.29531170559367E-17  -8.81394677160076E-16  -9.04347794216013E-16  -1.94056174078357E-15
      4.35434951989026E-02
      8.00000000000000E-01   8.00000000000000E-01   0.00000000000000E+00   0.00000000000000E+00   1.05239658173190E-15
      3.55497718999171E-19   1.05275207945090E-15   3.71968494583370E-15   0.00000000000000E+00   0.00000000000000E+00
      0.00000000000000E+00   0.00000000000000E+00  -1.03632273772092E-18  -6.09420540851401E-17  -6.19783768228610E-17
     -1.77446511940847E-15  -2.17717475994513E+00  -2.17717475994513E+00   0.00000000000000E+00   0.00000000000000E+00
     -2.29532713494741E-17  -9.67820431278561E-16  -9.90773702628036E-16  -1.94521982642521E-15
      5.35434951989026E-02
      8.00000000000000E-01   8.00000000000000E-01   0.00000000000000E+00   0.00000000000000E+00   1.12093216918760E-15
     -1.72558146244621E-18   1.11920658772516E-15   3.72209490286145E-15   0.00000000000000E+00   0.00000000000000E+00
      0.00000000000000E+00   0.00000000000000E+00  -1.03632194991479E-18  -6.13453918363935E-17  -6.23817137863083E-17
     -1.77210070812365E-15  -2.67717475994513E+00  -2.67717475994513E+00   0.00000000000000E+00   0.00000000000000E+00
     -2.29534297969920E-17  -1.03387144414186E-15  -1.05682487393885E-15  -1.94999419473780E-15
      6.35434951989026E-02
      8.00000000000000E-01   8.00000000000000E-01   0.00000000000000E+00   0.00000000000000E+00   1.17573490823673E-15
     -1.37131272227778E-18   1.17436359551445E-15   3.72266722986929E-15   0.00000000000000E+00   0.00000000000000E+00
      0.00000000000000E+00   0.00000000000000E+00  -1.03632051531025E-18  -6.22736966361540E-17  -6.33100171514642E-17
     -1.76773825016723E-15  -3.17717475994513E+00  -3.17717475994513E+00   0.00000000000000E+00   0.00000000000000E+00
     -2.29535938543073E-17  -1.08809998450868E-15  -1.11105357836299E-15  -1.95492897970204E-15
      7.35434951989026E-02
      8.00000000000000E-01   8.00000000000000E-01   0.00000000000000E+00   0.00000000000000E+00   1.21901436381110E-15
     -8.48640721434488E-18   1.21052795659675E-15   3.72113562478025E-15   0.00000000000000E+00   0.00000000000000E+00
      0.00000000000000E+00   0.00000000000000E+00  -1.03631837848678E-18  -6.39709528139741E-17  -6.50072711924608E-17
     -1.76107942107050E-15  -3.67717475994513E+00  -3.67717475994513E+00   0.00000000000000E+00   0.00000000000000E+00
     -2.29537645890995E-17  -1.12256692081519E-15  -1.14552068540429E-15  -1.96005620370975E-15
      8.35434951989026E-02
      8.00000000000000E-01   8.00000000000000E-01   0.00000000000000E+00   0.00000000000000E+00   1.25291545553078E-15
     -1.12837065218963E-18   1.25178708487859E-15   3.71780397045310E-15   0.00000000000000E+00   0.00000000000000E+00
      0.00000000000000E+00   0.00000000000000E+00  -1.03631568474934E-18  -6.65886488525247E-17  -6.76249645372740E-17
     -1.75240431823413E-15  -4.17717475994513E+00  -4.17717475994513E+00   0.00000000000000E+00   0.00000000000000E+00
     -2.29539428041775E-17  -1.16120817753714E-15  -1.18416212034131E-15  -1.96539965221898E-15
      9.35434951989026E-02
      8.00000000000000E-01   8.00000000000000E-01   0.00000000000000E+00   0.00000000000000E+00   1.27932379192747E-15
      7.29452481699519E-18   1.28661831674446E-15   3.71319038347579E-15   0.00000000000000E+00   0.00000000000000E+00
      0.00000000000000E+00   0.00000000000000E+00  -1.03631262948014E-18  -6.98248805683996E-17  -7.08611931978797E-17
     -1.74221489349261E-15  -4.67717475994513E+00  -4.67717475994513E+00   0.00000000000000E+00   0.00000000000000E+00
     -2.29541290546434E-17  -1.19280299449194E-15  -1.21575712354658E-15  -1.97097548998319E-15
      1.03543495198903E-01
      8.00000000000000E-01   8.00000000000000E-01   0.00000000000000E+00   0.00000000000000E+00   1.29904684442500E-15
      5.13354786716195E-19   1.29956019921172E-15   3.70768792931669E-15   0.00000000000000E+00   0.00000000000000E+00
      0.00000000000000E+00   0.00000000000000E+00  -1.03630934495251E-18  -7.27514013234686E-17  -7.37877106684211E-17
     -1.73089590045631E-15  -5.17717475994513E+00  -5.17717475994513E+00   0.00000000000000E+00   0.00000000000000E+00
     -2.29543236375757E-17  -1.20281816490572E-15  -1.22577248854330E-15  -1.97679202886037E-15
      1.13543495198903E-01
      8.00000000000000E-01   8.00000000000000E-01   0.00000000000000E+00   0.00000000000000E+00   1.31300274336577E-15
      2.47885027605267E-18   1.31548159364182E-15   3.70152938169898E-15   0.00000000000000E+00   0.00000000000000E+00
      0.00000000000000E+00   0.00000000000000E+00  -1.03630590226565E-18  -7.45266270982303E-17  -7.55629330004959E-17
     -1.71867716004353E-15  -5.67717475994513E+00  -5.67717475994513E+00   0.00000000000000E+00   0.00000000000000E+00
     -2.29545266733930E-17  -1.21696413396793E-15  -1.23991866064133E-15  -1.98285222165543E-15
      1.23543495198903E-01
      8.00000000000000E-01   8.00000000000000E-01   0.00000000000000E+00   0.00000000000000E+00   1.32294906744391E-15
     -5.99389456139215E-18   1.31695517288251E-15   3.69484847552808E-15   0.00000000000000E+00   0.00000000000000E+00
      0.00000000000000E+00   0.00000000000000E+00  -1.03630233917172E-18  -7.52791600557481E-17  -7.63154623949198E-17
     -1.70569230008669E-15  -6.17717475994513E+00  -6.17717475994513E+00   0.00000000000000E+00   0.00000000000000E+00
     -2.29547381887773E-17  -1.21768497229882E-15  -1.24063971048759E-15  -1.98915617544138E-15
      1.33543495198903E-01
      8.00000000000000E-01   8.00000000000000E-01   0.00000000000000E+00   0.00000000000000E+00   1.33046592012621E-15
     -1.32748479673896E-17   1.31719107215882E-15   3.68772601284766E-15   0.00000000000000E+00   0.00000000000000E+00
      0.00000000000000E+00   0.00000000000000E+00  -1.03629867740536E-18  -7.54286767035505E-17  -7.64649753809559E-17
     -1.69202341029378E-15  -6.67717475994513E+00  -6.67717475994513E+00   0.00000000000000E+00   0.00000000000000E+00
     -2.29549581646869E-17  -1.21777113861318E-15  -1.24072609677786E-15  -1.99570260255387E-15
      1.43543495198903E-01
      8.00000000000000E-01   8.00000000000000E-01   0.00000000000000E+00   0.00000000000000E+00   1.33648343207467E-15
      9.76201395746418E-18   1.34624544603214E-15   3.68021406885597E-15   0.00000000000000E+00   0.00000000000000E+00
      0.00000000000000E+00   0.00000000000000E+00  -1.03629493081154E-18  -7.52010245243216E-17  -7.62373194551332E-17
     -1.67772452379450E-15  -7.17717475994513E+00  -7.17717475994513E+00   0.00000000000000E+00   0.00000000000000E+00
     -2.29551865603524E-17  -1.24705294001665E-15  -1.27000812657700E-15  -2.00248954506147E-15
      1.53543495198903E-01
      8.00000000000000E-01   8.00000000000000E-01   0.00000000000000E+00   0.00000000000000E+00   1.34147650658855E-15
     -1.03518627317982E-17   1.33112464385675E-15   3.67234805445038E-15   0.00000000000000E+00   0.00000000000000E+00
      0.00000000000000E+00   0.00000000000000E+00  -1.03629110903078E-18  -7.47639327210657E-17  -7.58002238300965E-17
     -1.66283331955797E-15  -7.67717475994513E+00  -7.67717475994513E+00   0.00000000000000E+00   0.00000000000000E+00
     -2.29554233252146E-17  -1.23236899670144E-15  -1.25532442002666E-15  -2.00951473489240E-15
      1.63543495198903E-01
      8.00000000000000E-01   8.00000000000000E-01   0.00000000000000E+00   0.00000000000000E+00   1.34569312595225E-15
      1.18951014949831E-17   1.35758822744723E-15   3.66415294212633E-15   0.00000000000000E+00   0.00000000000000E+00
      0.00000000000000E+00   0.00000000000000E+00  -1.03628721925846E-18  -7.41614672887245E-17  -7.51977545079829E-17
     -1.64737716225786E-15  -8.17717475994513E+00  -8.17717475994513E+00   0.00000000000000E+00   0.00000000000000E+00
     -2.29556684050889E-17  -1.25943480453416E-15  -1.28239047293925E-15  -2.01677577986846E-15
      1.73543495198903E-01
      8.00000000000000E-01   8.00000000000000E-01   0.00000000000000E+00   0.00000000000000E+00   1.34928854157874E-15
      2.22230952448766E-18   1.35151085110323E-15   3.65564666441541E-15   0.00000000000000E+00   0.00000000000000E+00
      0.00000000000000E+00   0.00000000000000E+00  -1.03628326715512E-18  -7.34198571050714E-17  -7.44561403722265E-17
     -1.63137640102962E-15  -8.67717475994513E+00  -8.67717475994513E+00   0.00000000000000E+00   0.00000000000000E+00
     -2.29559217454738E-17  -1.25409878898553E-15  -1.27705471073100E-15  -2.02427026338579E-15
      1.83543495198903E-01
      8.00000000000000E-01   8.00000000000000E-01   0.00000000000000E+00   0.00000000000000E+00   1.35238652539563E-15
      1.20556732831343E-17   1.36444219867877E-15   3.64684204103444E-15   0.00000000000000E+00   0.00000000000000E+00
      0.00000000000000E+00   0.00000000000000E+00  -1.03627925735495E-18  -7.25595298894413E-17  -7.35958091467963E-17
     -1.61484624382373E-15  -9.17717475994513E+00  -9.17717475994513E+00   0.00000000000000E+00   0.00000000000000E+00
     -2.29561832932992E-17  -1.26789020623867E-15  -1.29084638953197E-15  -2.03199579721073E-15
      1.93543495198903E-01
      8.00000000000000E-01   8.00000000000000E-01   0.00000000000000E+00   0.00000000000000E+00   1.35508702385333E-15
     -6.02157866645694E-18   1.34906544518687E-15   3.63774786043471E-15   0.00000000000000E+00   0.00000000000000E+00
      0.00000000000000E+00   0.00000000000000E+00  -1.03627519376528E-18  -7.15221382911301E-17  -7.25584134848954E-17
     -1.59779781456771E-15  -9.67717475994513E+00  -9.67717475994513E+00   0.00000000000000E+00   0.00000000000000E+00
     -2.29564529977301E-17  -1.25355057870425E-15  -1.27650703170198E-15  -2.03995004586699E-15
      2.03543495198903E-01
      8.00000000000000E-01   8.00000000000000E-01   0.00000000000000E+00   0.00000000000000E+00   1.35746324353838E-15
      7.74894050225256E-18   1.36521218404064E-15   3.62836944328906E-15   0.00000000000000E+00   0.00000000000000E+00
      0.00000000000000E+00   0.00000000000000E+00  -1.03627107974987E-18  -7.01660643933673E-17  -7.12023354731171E-17
     -1.58023871011770E-15  -1.01771747599451E+01  -1.01771747599451E+01   0.00000000000000E+00   0.00000000000000E+00
     -2.29567308103789E-17  -1.27105311775714E-15  -1.29400984856752E-15  -2.04813073317136E-15
      2.13543495198903E-01
      8.00000000000000E-01   8.00000000000000E-01   0.00000000000000E+00   0.00000000000000E+00   1.35959075232471E-15
      5.21336910270780E-18   1.36480412142741E-15   3.61870891335417E-15   0.00000000000000E+00   0.00000000000000E+00
      0.00000000000000E+00   0.00000000000000E+00  -1.03626691824907E-18  -6.78643453280935E-17  -6.89006122463425E-17
     -1.56217327403177E-15  -1.06771747599451E+01  -1.06771747599451E+01   0.00000000000000E+00   0.00000000000000E+00
     -2.29570166851894E-17  -1.27294649249588E-15  -1.29590350918107E-15  -2.05653563932240E-15
      2.23543495198903E-01
      8.00000000000000E-01   8.00000000000000E-01   0.00000000000000E+00   0.00000000000000E+00   1.36153656098866E-15
      5.88339753221873E-18   1.36741995852088E-15   3.60876539798052E-15   0.00000000000000E+00   0.00000000000000E+00
      0.00000000000000E+00   0.00000000000000E+00  -1.03626271187436E-18  -6.24980445696176E-17  -6.35343072814920E-17
     -1.54360280069842E-15  -1.11771747599451E+01  -1.11771747599451E+01   0.00000000000000E+00   0.00000000000000E+00
     -2.29573105783157E-17  -1.28092834066107E-15  -1.30388565123939E-15  -2.06516259728209E-15
      2.33543495198903E-01
      8.00000000000000E-01   8.00000000000000E-01   0.00000000000000E+00   0.00000000000000E+00   1.36334405643483E-15
     -3.80522866610284E-18   1.35953882776872E-15   3.59853545705309E-15   0.00000000000000E+00   0.00000000000000E+00
      0.00000000000000E+00   0.00000000000000E+00  -1.03625846301182E-18  -4.67099651830352E-17  -4.77462236460470E-17
     -1.52452595770090E-15  -1.16771747599451E+01  -1.16771747599451E+01   0.00000000000000E+00   0.00000000000000E+00
     -2.29576124483255E-17  -1.28883499167435E-15  -1.31179260412268E-15  -2.07400949935219E-15
      2.43543495198903E-01
      8.00000000000000E-01   8.00000000000000E-01   0.00000000000000E+00   0.00000000000000E+00   1.36504355595001E-15
     -7.46678935829273E-18   1.35757676659171E-15   3.58801420781291E-15   0.00000000000000E+00   0.00000000000000E+00
      0.00000000000000E+00   0.00000000000000E+00  -1.03625417397373E-18   4.41425390561444E-18   3.37799973164071E-18
     -1.50493987861515E-15  -1.21771747599451E+01  -1.21771747599451E+01   0.00000000000000E+00   0.00000000000000E+00
     -2.29579222573014E-17  -1.33799684406605E-15  -1.36095476632335E-15  -2.08307432919777E-15
      2.53543495198903E-01
      8.00000000000000E-01   8.00000000000000E-01   0.00000000000000E+00   0.00000000000000E+00   1.36665636622582E-15
      4.99527840960261E-18   1.37165164463543E-15   3.57719784597486E-15   0.00000000000000E+00   0.00000000000000E+00
      0.00000000000000E+00   0.00000000000000E+00  -1.03624984724349E-18   1.73840973265699E-16   1.72804723418456E-16
     -1.48484260615049E-15  -1.26771747599451E+01  -1.26771747599451E+01   0.00000000000000E+00   0.00000000000000E+00
     -2.29582399735136E-17  -1.52149812808037E-15  -1.54445636805388E-15  -2.09235523982438E-15
      2.63543495198903E-01
      8.00000000000000E-01   8.00000000000000E-01   0.00000000000000E+00   0.00000000000000E+00   1.36819282628796E-15
     -1.87201594226402E-18   1.36632081034570E-15   3.56608834274149E-15   0.00000000000000E+00   0.00000000000000E+00
      0.00000000000000E+00   0.00000000000000E+00  -1.03624548584712E-18   7.31548724972848E-16   7.30512479487001E-16
     -1.46423764602665E-15  -1.31771747599451E+01  -1.31771747599451E+01   0.00000000000000E+00   0.00000000000000E+00
     -2.29585655763625E-17  -2.07387472425633E-15  -2.09683328983269E-15  -2.10185069671485E-15
      2.73543495198903E-01
      8.00000000000000E-01   8.00000000000000E-01   0.00000000000000E+00   0.00000000000000E+00   1.36964933580752E-15
     -2.43160295140800E-17   1.34533330629344E-15   3.55470042658684E-15   0.00000000000000E+00   0.00000000000000E+00
      0.00000000000000E+00   0.00000000000000E+00  -1.03624109380596E-18   2.53473278284621E-15   2.53369654175241E-15
     -1.44314074706651E-15  -1.36771747599451E+01  -1.36771747599451E+01   0.00000000000000E+00   0.00000000000000E+00
     -2.29588990633855E-17  -3.85607094898247E-15  -3.87902984804585E-15  -2.11155967952032E-15
      2.83543495198903E-01
      8.00000000000000E-01   8.00000000000000E-01   0.00000000000000E+00   0.00000000000000E+00   1.37100634546928E-15
      4.32211299365158E-18   1.37532845846294E-15   3.54306885328522E-15   0.00000000000000E+00   0.00000000000000E+00
      0.00000000000000E+00   0.00000000000000E+00  -1.03623667642887E-18   8.23055849325281E-15   8.22952225657638E-15
     -1.42158698415656E-15  -1.41771747599451E+01  -1.41771747599451E+01   0.00000000000000E+00   0.00000000000000E+00
     -2.29592404568424E-17  -9.58189147458244E-15  -9.60485071503928E-15  -2.12148186912866E-15
      2.93543495198903E-01
      8.00000000000000E-01   8.00000000000000E-01   0.00000000000000E+00   0.00000000000000E+00   1.37222715408101E-15
     -1.09986499450384E-17   1.36122850413597E-15   3.53125131118766E-15   0.00000000000000E+00   0.00000000000000E+00
      0.00000000000000E+00   0.00000000000000E+00  -1.03623223987357E-18   2.57439544596238E-14   2.57429182273840E-14
     -1.39963363514695E-15  -1.46771747599451E+01  -1.46771747599451E+01   0.00000000000000E+00   0.00000000000000E+00
     -2.29595898048859E-17  -2.70811871417151E-14  -2.71041467315199E-14  -2.13161767604070E-15
      3.03543495198903E-01
      8.00000000000000E-01   8.00000000000000E-01   0.00000000000000E+00   0.00000000000000E+00   1.37325354867118E-15
      2.49683966137040E-17   1.39822194528489E-15   3.51932289298303E-15   0.00000000000000E+00  -9.18447372075268E-17
      0.00000000000000E+00   0.00000000000000E+00  -1.03622778872699E-18   7.80025779004114E-14   7.80015416726227E-14
     -1.37735488581976E-15  -1.51771747599451E+01  -1.51771747599451E+01   0.00000000000000E+00   0.00000000000000E+00
     -2.29599471737373E-17  -7.93768036707339E-14  -7.93997636179076E-14  -2.14196800716327E-15
      3.13543495198903E-01
      8.00000000000000E-01   8.00000000000000E-01   0.00000000000000E+00   0.00000000000000E+00   1.37398962860249E-15
      2.62274469862314E-17   1.40021707558872E-15   3.50736400973516E-15   0.00000000000000E+00  -1.83689474415054E-16
      0.00000000000000E+00   0.00000000000000E+00  -1.03622331762235E-18   2.28938141252404E-13   2.28937105029086E-13
     -1.35483014621548E-15  -1.56771747599451E+01  -1.56771747599451E+01   0.00000000000000E+00   0.00000000000000E+00
     -2.29603126339099E-17  -2.30314361792041E-13  -2.30337322104675E-13  -2.15253386351968E-15
      3.23543495198903E-01
      8.00000000000000E-01   8.00000000000000E-01   0.00000000000000E+00   0.00000000000000E+00   1.37425808004425E-15
     -1.60508927494118E-17   1.35820718729484E-15   3.49544903164903E-15   0.00000000000000E+00  -6.42913160452687E-16
      0.00000000000000E+00   0.00000000000000E+00  -1.03621878239083E-18   6.49996594321023E-13   6.49995558102240E-13
     -1.33213301756386E-15  -1.61771747599451E+01  -1.61771747599451E+01   0.00000000000000E+00   0.00000000000000E+00
     -2.29606862489547E-17  -6.51330804603286E-13  -6.51353765289535E-13  -2.16331601408516E-15
      3.33543495198903E-01
      8.00000000000000E-01   8.00000000000000E-01   0.00000000000000E+00   0.00000000000000E+00   1.37369623531713E-15
     -9.95370940930100E-18   1.36374252590783E-15   3.48364124799445E-15   0.00000000000000E+00  -1.74505000694301E-15
      0.00000000000000E+00   0.00000000000000E+00  -1.03621400647400E-18   1.78248564108314E-12   1.78248460486913E-12
     -1.30932632024740E-15  -1.66771747599451E+01  -1.66771747599451E+01   0.00000000000000E+00   0.00000000000000E+00
     -2.29610680730586E-17  -1.78382538632697E-12  -1.78384834739504E-12  -2.17431492774705E-15
      3.43543495198903E-01
      8.00000000000000E-01   8.00000000000000E-01   0.00000000000000E+00   0.00000000000000E+00   1.37152904050857E-15
     -1.87732899578727E-17   1.35275575055069E-15   3.47199431567944E-15   0.00000000000000E+00  -4.68408159758386E-15
      0.00000000000000E+00   0.00000000000000E+00  -1.03620841430947E-18   4.71446479255960E-12   4.71446375635119E-12
     -1.28646330900284E-15  -1.71771747599451E+01  -1.71771747599451E+01   0.00000000000000E+00   0.00000000000000E+00
     -2.29614581591336E-17  -4.71579355064358E-12  -4.71581651210174E-12  -2.18553100667661E-15
      3.53543495198903E-01
      8.00000000000000E-01   8.00000000000000E-01   0.00000000000000E+00   0.00000000000000E+00   1.36612494430862E-15
      3.51988794255894E-17   1.40132382373421E-15   3.46055767930626E-15   0.00000000000000E+00  -1.20316605741860E-14
      0.00000000000000E+00   0.00000000000000E+00  -1.03620035452144E-18   1.20089407191279E-11   1.20089396829276E-11
     -1.26359252600304E-15  -1.76771747599451E+01  -1.76771747599451E+01   0.00000000000000E+00   0.00000000000000E+00
     -2.29618565787131E-17  -1.20103180448948E-11  -1.20103410067514E-11  -2.19696515330321E-15
      3.63543495198903E-01
      8.00000000000000E-01   8.00000000000000E-01   0.00000000000000E+00   0.00000000000000E+00   1.35427011924130E-15
      1.26614534251995E-19   1.35439673377555E-15   3.44938414873053E-15   0.00000000000000E+00  -2.93903159064086E-14
      0.00000000000000E+00   0.00000000000000E+00  -1.03618577619577E-18   2.94141346586012E-11   2.94141336224154E-11
     -1.24076431645121E-15  -1.81771747599451E+01  -1.81771747599451E+01   0.00000000000000E+00   0.00000000000000E+00
     -2.29622634594967E-17  -2.94154650568857E-11  -2.94154880191492E-11  -2.20861983227931E-15
      3.73543495198903E-01
      8.00000000000000E-01   8.00000000000000E-01   0.00000000000000E+00   0.00000000000000E+00   1.33040675575132E-15
      1.63163360626138E-17   1.34672309181393E-15   3.43853938154805E-15   0.00000000000000E+00  -6.91590871172676E-14
      0.00000000000000E+00   0.00000000000000E+00  -1.03615586758420E-18   6.91439404137089E-11   6.91439393775531E-11
     -1.21803841120944E-15  -1.86771747599451E+01  -1.86771747599451E+01   0.00000000000000E+00   0.00000000000000E+00
     -2.29626790529227E-17  -6.91452631379671E-11  -6.91452861006461E-11  -2.22050097033861E-15
      3.83543495198903E-01
      8.00000000000000E-01   8.00000000000000E-01   0.00000000000000E+00   0.00000000000000E+00   1.28702056090057E-15
     -2.72628903310230E-17   1.25975767056955E-15   3.42811377939776E-15   0.00000000000000E+00  -1.55584984829550E-13
      0.00000000000000E+00   0.00000000000000E+00  -1.03609555590035E-18   1.55606952004119E-10   1.55606950968023E-10
     -1.19549261962503E-15  -1.91771747599451E+01  -1.91771747599450E+01   0.00000000000000E+00   0.00000000000000E+00
     -2.29631038486568E-17  -1.55608187762588E-10  -1.55608210725692E-10  -2.23262115977272E-15
      3.93543495198903E-01
      8.00000000000000E-01   8.00000000000000E-01   0.00000000000000E+00   0.00000000000000E+00   1.21825539788413E-15
     -2.31338316142237E-17   1.19512156626990E-15   3.41823654526090E-15   0.00000000000000E+00  -3.34222998698190E-13
      0.00000000000000E+00   0.00000000000000E+00  -1.03598672178894E-18   3.34193425087388E-10   3.34193424051401E-10
     -1.17323206410555E-15  -1.96771747599451E+01  -1.96771747599448E+01   0.00000000000000E+00   0.00000000000000E+00
     -2.29635387479078E-17  -3.34194596209428E-10  -3.34194619172966E-10  -2.24500448115535E-15
      4.03543495198903E-01
      8.00000000000000E-01   8.00000000000000E-01   0.00000000000000E+00   0.00000000000000E+00   1.12603633079602E-15
      6.29894431360215E-18   1.13233527510962E-15   3.40908876324981E-15   0.00000000000000E+00  -6.82314552714716E-13
      0.00000000000000E+00   0.00000000000000E+00  -1.03581928394525E-18   6.82280790086294E-10   6.82280789050475E-10
     -1.15139630951480E-15  -2.01771747599451E+01  -2.01771747599445E+01   0.00000000000000E+00   0.00000000000000E+00
     -2.29639852789893E-17  -6.82281898421764E-10  -6.82281921385749E-10  -2.25769245373501E-15
      4.13543495198903E-01
      8.00000000000000E-01   8.00000000000000E-01   0.00000000000000E+00   0.00000000000000E+00   1.02142704027313E-15
      2.12844429799602E-17   1.04271148325309E-15   3.40090766574395E-15   0.00000000000000E+00  -1.31843120261405E-12
      0.00000000000000E+00   0.00000000000000E+00  -1.03559933079298E-18   1.31846722251613E-09   1.31846722148053E-09
     -1.13015876923538E-15  -2.06771747599451E+01  -2.06771747599438E+01   0.00000000000000E+00   0.00000000000000E+00
     -2.29644457770820E-17  -1.31846824122756E-09  -1.31846826419200E-09  -2.27074889650857E-15
      4.23543495198903E-01
      8.00000000000000E-01   8.00000000000000E-01   0.00000000000000E+00   0.00000000000000E+00   9.17534860204790E-16
      2.45133340533745E-17   9.42048194258164E-16   3.39397140968800E-15   0.00000000000000E+00  -2.40256648061169E-12
      0.00000000000000E+00   0.00000000000000E+00  -1.03534114005648E-18   2.40257233412193E-09   2.40257233308658E-09
     -1.10971177231786E-15  -2.11771747599451E+01  -2.11771747599427E+01   0.00000000000000E+00   0.00000000000000E+00
     -2.29649233830798E-17  -2.40257325216990E-09  -2.40257327513483E-09  -2.28425963737015E-15
      4.33543495198903E-01
      8.00000000000000E-01   8.00000000000000E-01   0.00000000000000E+00   0.00000000000000E+00   8.22911638406200E-16
      5.76019568919691E-18   8.28671834095397E-16   3.38855974682448E-15   0.00000000000000E+00  -4.11978753218082E-12
      0.00000000000000E+00   0.00000000000000E+00  -1.03505381256901E-18   4.11976134456060E-09   4.11976134352554E-09
     -1.09023618526928E-15  -2.16771747599451E+01  -2.16771747599410E+01   0.00000000000000E+00   0.00000000000000E+00
     -2.29654217337905E-17  -4.11976214923198E-09  -4.11976217219740E-09  -2.29832356155520E-15
      4.43543495198903E-01
      8.00000000000000E-01   8.00000000000000E-01   0.00000000000000E+00   0.00000000000000E+00   7.40957120252783E-16
      2.93814907406406E-17   7.70338610993424E-16   3.38490241060774E-15   0.00000000000000E+00  -6.65093664488305E-12
      0.00000000000000E+00   0.00000000000000E+00  -1.03473747923793E-18   6.65091359589194E-09   6.65091359485721E-09
     -1.07186606311956E-15  -2.21771747599451E+01  -2.21771747599385E+01   0.00000000000000E+00   0.00000000000000E+00
     -2.29659443870541E-17  -6.65091434222986E-09  -6.65091436519580E-09  -2.31303634748818E-15
      4.53543495198903E-01
      8.00000000000000E-01   8.00000000000000E-01   0.00000000000000E+00   0.00000000000000E+00   6.71477817727670E-16
      2.55769420854705E-17   6.97054759813140E-16   3.38313976146672E-15   0.00000000000000E+00  -1.01422306403528E-11
      0.00000000000000E+00   0.00000000000000E+00  -1.03438572643697E-18   1.01422469289916E-08   1.01422469279572E-08
     -1.05466567567150E-15  -2.26771747599451E+01  -2.26771747599350E+01   0.00000000000000E+00   0.00000000000000E+00
     -2.29664942354359E-17  -1.01422476020453E-08  -1.01422476250118E-08  -2.32847408579523E-15
      4.63543495198903E-01
      8.00000000000000E-01   8.00000000000000E-01   0.00000000000000E+00   0.00000000000000E+00   6.12346055013869E-16
     -5.66096533483571E-18   6.06685089679034E-16   3.38331310350878E-15   0.00000000000000E+00  -1.46881777531765E-11