DF-ISE text

Info {
  version   = 1.0
  type      = xyplot
  datasets  = [
    "time"
    "Ntop OuterVoltage" "Ntop InnerVoltage" "Ntop QuasiFermiPotential" "Ntop DisplacementCurrent" "Ntop eCurrent"
    "Ntop hCurrent" "Ntop TotalCurrent" "Ntop Charge" "Ptop OuterVoltage" "Ptop InnerVoltage"
    "Ptop QuasiFermiPotential" "Ptop DisplacementCurrent" "Ptop eCurrent" "Ptop hCurrent" "Ptop TotalCurrent"
    "Ptop Charge" "Pbot OuterVoltage" "Pbot InnerVoltage" "Pbot QuasiFermiPotential" "Pbot DisplacementCurrent"
    "Pbot eCurrent" "Pbot hCurrent" "Pbot TotalCurrent" "Pbot Charge" ]
  functions = [
    Time
    OuterVoltage InnerVoltage QuasiFermiPotential DisplacementCurrent eCurrent
    hCurrent TotalCurrent Charge OuterVoltage InnerVoltage
    QuasiFermiPotential DisplacementCurrent eCurrent hCurrent TotalCurrent
    Charge OuterVoltage InnerVoltage QuasiFermiPotential DisplacementCurrent
    eCurrent hCurrent TotalCurrent Charge ]
}

Data {
      1.00000000000000E-03
      8.00000000000000E-01   8.00000000000000E-01   0.00000000000000E+00   0.00000000000000E+00   5.60358745295206E-16
      6.30884915761644E-19   5.60989630210968E-16   7.21553952394228E-15   0.00000000000000E+00   0.00000000000000E+00
      0.00000000000000E+00   0.00000000000000E+00  -1.03632159261798E-18  -6.70268075561872E-17  -6.80631291488052E-17
     -5.28995537473774E-15  -5.00000000000000E-02  -5.00000000000000E-02   0.00000000000000E+00   0.00000000000000E+00
     -2.29526236895303E-17  -4.69973877372632E-16  -4.92926501062163E-16  -1.92558414920455E-15
      2.91111111111111E-03
      8.00000000000000E-01   8.00000000000000E-01   0.00000000000000E+00   0.00000000000000E+00   5.91980481381333E-16
      6.88692963075402E-19   5.92669174344408E-16   7.21642054854459E-15   0.00000000000000E+00   0.00000000000000E+00
      0.00000000000000E+00   0.00000000000000E+00  -1.03632159196275E-18  -6.68963881539451E-17  -6.79327097459079E-17
     -5.28995305610536E-15  -1.45555555555556E-01  -1.45555555555555E-01   0.00000000000000E+00   0.00000000000000E+00
     -2.29526526207203E-17  -5.01783811977780E-16  -5.24736464598501E-16  -1.92646749243922E-15
      6.56345679012346E-03
      8.00000000000000E-01   8.00000000000000E-01   0.00000000000000E+00   0.00000000000000E+00   6.48467998789442E-16
      3.06523129831632E-19   6.48774521919274E-16   7.21809946446029E-15   0.00000000000000E+00   0.00000000000000E+00
      0.00000000000000E+00   0.00000000000000E+00  -1.03632158993119E-18  -6.66646620919566E-17  -6.77009836818878E-17
     -5.28994586876600E-15  -3.28172839506173E-01  -3.28172839506173E-01   0.00000000000000E+00   0.00000000000000E+00
     -2.29527079216971E-17  -5.58120830315689E-16  -5.81073538237386E-16  -1.92815359569429E-15
      1.35434951989026E-02
      8.00000000000000E-01   8.00000000000000E-01   0.00000000000000E+00   0.00000000000000E+00   7.45689312152613E-16
      1.07131925848326E-19   7.45796444078461E-16   7.22128142233323E-15   0.00000000000000E+00   0.00000000000000E+00
      0.00000000000000E+00   0.00000000000000E+00  -1.03632158059836E-18  -6.62880218228408E-17  -6.73243434034392E-17
     -5.28991285921538E-15  -6.77174759945130E-01  -6.77174759945130E-01   0.00000000000000E+00   0.00000000000000E+00
     -2.29528136037118E-17  -6.55519287071310E-16  -6.78472100675022E-16  -1.93136856311784E-15
      2.35434951989026E-02
      8.00000000000000E-01   8.00000000000000E-01   0.00000000000000E+00   0.00000000000000E+00   8.67780662181480E-16
     -1.92286484675511E-18   8.65857797334725E-16   7.22570734779639E-15   0.00000000000000E+00   0.00000000000000E+00
      0.00000000000000E+00   0.00000000000000E+00  -1.03632153383976E-18  -6.58974568219489E-17  -6.69337783557887E-17
     -5.28974756042077E-15  -1.17717475994513E+00  -1.17717475994513E+00   0.00000000000000E+00   0.00000000000000E+00
     -2.29529649532042E-17  -7.75971054025732E-16  -7.98924018978937E-16  -1.93595978737563E-15
      3.35434951989026E-02
      8.00000000000000E-01   8.00000000000000E-01   0.00000000000000E+00   0.00000000000000E+00   9.73357568169847E-16
     -1.16316199854159E-18   9.72194406171305E-16   7.22972633024650E-15   0.00000000000000E+00   0.00000000000000E+00
      0.00000000000000E+00   0.00000000000000E+00  -1.03632137209411E-18  -6.57237731601488E-17  -6.67600945322429E-17
     -5.28917608805843E-15  -1.67717475994513E+00  -1.67717475994513E+00   0.00000000000000E+00   0.00000000000000E+00
     -2.29531166754534E-17  -8.82481194963609E-16  -9.05434311639062E-16  -1.94055024218807E-15
      4.35434951989026E-02
      8.00000000000000E-01   8.00000000000000E-01   0.00000000000000E+00   0.00000000000000E+00   1.06044634785579E-15
     -1.06415709244828E-19   1.06033993214654E-15   7.23274813331999E-15   0.00000000000000E+00   0.00000000000000E+00
      0.00000000000000E+00   0.00000000000000E+00  -1.03632091521449E-18  -6.58835727086600E-17  -6.69198936238745E-17
     -5.28756041388328E-15  -2.17717475994513E+00  -2.17717475994513E+00   0.00000000000000E+00   0.00000000000000E+00
     -2.29532702849267E-17  -9.70466768237743E-16  -9.93420038522670E-16  -1.94518771943673E-15
      5.35434951989026E-02
      8.00000000000000E-01   8.00000000000000E-01   0.00000000000000E+00   0.00000000000000E+00   1.13263930009605E-15
     -3.48483309355587E-18   1.12915446700250E-15   7.23373860976379E-15   0.00000000000000E+00   0.00000000000000E+00
      0.00000000000000E+00   0.00000000000000E+00  -1.03631986379384E-18  -6.66244198788615E-17  -6.76607397426553E-17
     -5.28381827476095E-15  -2.67717475994513E+00  -2.67717475994513E+00   0.00000000000000E+00   0.00000000000000E+00
     -2.29534273436508E-17  -1.03854029991619E-15  -1.06149372725984E-15  -1.94992033500282E-15
      6.35434951989026E-02
      8.00000000000000E-01   8.00000000000000E-01   0.00000000000000E+00   0.00000000000000E+00   1.19251240037724E-15
     -7.77131349979048E-19   1.19173526902726E-15   7.23163139467034E-15   0.00000000000000E+00   0.00000000000000E+00
      0.00000000000000E+00   0.00000000000000E+00  -1.03631794395020E-18  -6.83394668816598E-17  -6.93757848256100E-17
     -5.27684443511261E-15  -3.17717475994513E+00  -3.17717475994513E+00   0.00000000000000E+00   0.00000000000000E+00
     -2.29535891290287E-17  -1.09940589507263E-15  -1.12235948420165E-15  -1.95478695955771E-15
      7.35434951989026E-02
      8.00000000000000E-01   8.00000000000000E-01   0.00000000000000E+00   0.00000000000000E+00   1.24050926665932E-15
     -2.03189085775793E-19   1.24030607757354E-15   7.22629316733120E-15   0.00000000000000E+00   0.00000000000000E+00
      0.00000000000000E+00   0.00000000000000E+00  -1.03631519124206E-18  -7.14271514740969E-17  -7.24634666653389E-17
     -5.26646866782578E-15  -3.67717475994513E+00  -3.67717475994513E+00   0.00000000000000E+00   0.00000000000000E+00
     -2.29537568675981E-17  -1.14488885404061E-15  -1.16784261090821E-15  -1.95982449950541E-15
      8.35434951989026E-02
      8.00000000000000E-01   8.00000000000000E-01   0.00000000000000E+00   0.00000000000000E+00   1.27754805409764E-15
     -1.13942098193199E-17   1.26615384427832E-15   7.21856297402215E-15   0.00000000000000E+00   0.00000000000000E+00
      0.00000000000000E+00   0.00000000000000E+00  -1.03631190094953E-18  -7.57705926667031E-17  -7.68069045676526E-17
     -5.25349642640216E-15  -4.17717475994513E+00  -4.17717475994513E+00   0.00000000000000E+00   0.00000000000000E+00
     -2.29539316864622E-17  -1.16639300802421E-15  -1.18934693971067E-15  -1.96506654761996E-15
      9.35434951989026E-02
      8.00000000000000E-01   8.00000000000000E-01   0.00000000000000E+00   0.00000000000000E+00   1.30432437401547E-15
      1.84662073579792E-18   1.30617099475127E-15   7.20926571162718E-15   0.00000000000000E+00   0.00000000000000E+00
      0.00000000000000E+00   0.00000000000000E+00  -1.03630831555331E-18  -8.00082393628291E-17  -8.10445476783824E-17
     -5.23873216344547E-15  -4.67717475994513E+00  -4.67717475994513E+00   0.00000000000000E+00   0.00000000000000E+00
     -2.29541142821916E-17  -1.20217233279070E-15  -1.22512644707289E-15  -1.97053354818169E-15
      1.03543495198903E-01
      8.00000000000000E-01   8.00000000000000E-01   0.00000000000000E+00   0.00000000000000E+00   1.32194673500293E-15
     -7.47047743868113E-18   1.31447625756425E-15   7.19884420738233E-15   0.00000000000000E+00   0.00000000000000E+00
      0.00000000000000E+00   0.00000000000000E+00  -1.03630455200035E-18  -8.25469833504957E-17  -8.35832879024960E-17
     -5.22261072979418E-15  -5.17717475994513E+00  -5.17717475994513E+00   0.00000000000000E+00   0.00000000000000E+00
     -2.29543049396119E-17  -1.20793866472214E-15  -1.23089296966175E-15  -1.97623347758813E-15
      1.13543495198903E-01
      8.00000000000000E-01   8.00000000000000E-01   0.00000000000000E+00   0.00000000000000E+00   1.33331862375531E-15
      4.84362328760695E-18   1.33816224704292E-15   7.18747423188669E-15   0.00000000000000E+00   0.00000000000000E+00
      0.00000000000000E+00   0.00000000000000E+00  -1.03630065850230E-18  -8.34485341353050E-17  -8.44848347938073E-17
     -5.20530686936911E-15  -5.67717475994513E+00  -5.67717475994513E+00   0.00000000000000E+00   0.00000000000000E+00
     -2.29545037134265E-17  -1.23072290853568E-15  -1.25367741224911E-15  -1.98216736251759E-15
      1.23543495198903E-01
      8.00000000000000E-01   8.00000000000000E-01   0.00000000000000E+00   0.00000000000000E+00   1.34126229384260E-15
     -1.28858417517860E-20   1.34124940800085E-15   7.17516846923329E-15   0.00000000000000E+00   0.00000000000000E+00
      0.00000000000000E+00   0.00000000000000E+00  -1.03629665270049E-18  -8.34586696268387E-17  -8.44949662795392E-17
     -5.18683609560292E-15  -6.17717475994513E+00  -6.17717475994513E+00   0.00000000000000E+00   0.00000000000000E+00
     -2.29547105302449E-17  -1.23379973119107E-15  -1.25675444172131E-15  -1.98833237363037E-15
      1.33543495198903E-01
      8.00000000000000E-01   8.00000000000000E-01   0.00000000000000E+00   0.00000000000000E+00   1.34741765592331E-15
     -3.22728229531754E-18   1.34419037362799E-15   7.16180721093119E-15   0.00000000000000E+00   0.00000000000000E+00
      0.00000000000000E+00   0.00000000000000E+00  -1.03629253598361E-18  -8.30325682201219E-17  -8.40688607561055E-17
     -5.16708446846136E-15  -6.67717475994513E+00  -6.67717475994513E+00   0.00000000000000E+00   0.00000000000000E+00
     -2.29549252184023E-17  -1.23716658765348E-15  -1.26012151287188E-15  -1.99472274246981E-15
      1.43543495198903E-01
      8.00000000000000E-01   8.00000000000000E-01   0.00000000000000E+00   0.00000000000000E+00   1.35262087772822E-15
      2.07569208208218E-17   1.37337779854904E-15   7.14715933314652E-15   0.00000000000000E+00   0.00000000000000E+00
      0.00000000000000E+00   0.00000000000000E+00  -1.03628829999119E-18  -8.24321521261563E-17  -8.34684404261475E-17
     -5.14582903404607E-15  -7.17717475994513E+00  -7.17717475994513E+00   0.00000000000000E+00   0.00000000000000E+00
     -2.29551475252777E-17  -1.26695421059762E-15  -1.28990935812290E-15  -2.00133029910047E-15
      1.53543495198903E-01
      8.00000000000000E-01   8.00000000000000E-01   0.00000000000000E+00   0.00000000000000E+00   1.35729280527665E-15
      2.62396346022602E-18   1.35991676873688E-15   7.13105739132425E-15   0.00000000000000E+00   0.00000000000000E+00
      0.00000000000000E+00   0.00000000000000E+00  -1.03628394170619E-18  -8.17400225797387E-17  -8.27763065214449E-17
     -5.12290904158615E-15  -7.67717475994513E+00  -7.67717475994513E+00   0.00000000000000E+00   0.00000000000000E+00
     -2.29553772474007E-17  -1.25418508496804E-15  -1.27714046221544E-15  -2.00814834973809E-15
      1.63543495198903E-01
      8.00000000000000E-01   8.00000000000000E-01   0.00000000000000E+00   0.00000000000000E+00   1.36155076368428E-15
      2.42942210785066E-18   1.36398018579213E-15   7.11378143648966E-15   0.00000000000000E+00   0.00000000000000E+00
      0.00000000000000E+00   0.00000000000000E+00  -1.03627949022914E-18  -8.10698564433524E-17  -8.21061359335815E-17
     -5.09860116494404E-15  -8.17717475994513E+00  -8.17717475994513E+00   0.00000000000000E+00   0.00000000000000E+00
     -2.29556145209711E-17  -1.25891843533757E-15  -1.28187404985855E-15  -2.01518027154563E-15
      1.73543495198903E-01
      8.00000000000000E-01   8.00000000000000E-01   0.00000000000000E+00   0.00000000000000E+00   1.36534394295981E-15
     -4.33886572868701E-18   1.36100507723112E-15   7.09597775961889E-15   0.00000000000000E+00   0.00000000000000E+00
      0.00000000000000E+00   0.00000000000000E+00  -1.03627499729511E-18  -8.02459448527197E-17  -8.12822198500148E-17
     -5.07353968445723E-15  -8.67717475994513E+00  -8.67717475994513E+00   0.00000000000000E+00   0.00000000000000E+00
     -2.29558597756865E-17  -1.25676699760542E-15  -1.27972285738110E-15  -2.02243807516164E-15
      1.83543495198903E-01
      8.00000000000000E-01   8.00000000000000E-01   0.00000000000000E+00   0.00000000000000E+00   1.36857723676460E-15
     -3.12192440125070E-18   1.36545531236335E-15   7.07811702838085E-15   0.00000000000000E+00   0.00000000000000E+00
      0.00000000000000E+00   0.00000000000000E+00  -1.03627049817739E-18  -7.90698851559383E-17  -8.01061556541157E-17
     -5.04818650007045E-15  -9.17717475994513E+00  -9.17717475994513E+00   0.00000000000000E+00   0.00000000000000E+00
     -2.29561133346836E-17  -1.26239304337455E-15  -1.28534915670923E-15  -2.02993052831042E-15
      1.93543495198903E-01
      8.00000000000000E-01   8.00000000000000E-01   0.00000000000000E+00   0.00000000000000E+00   1.37110207189859E-15
      3.81819154543697E-18   1.37492026344403E-15   7.06039324473213E-15   0.00000000000000E+00   0.00000000000000E+00
      0.00000000000000E+00   0.00000000000000E+00  -1.03626599862813E-18  -7.67656406762302E-17  -7.78019066748584E-17
     -5.02273260806393E-15  -9.67717475994513E+00  -9.67717475994513E+00   0.00000000000000E+00   0.00000000000000E+00
     -2.29563753283269E-17  -1.27416198144084E-15  -1.29711835676917E-15  -2.03766063666820E-15
      2.03543495198903E-01
      8.00000000000000E-01   8.00000000000000E-01   0.00000000000000E+00   0.00000000000000E+00   1.37275315292699E-15
      1.90964644111038E-18   1.37466279936810E-15   7.04286918672748E-15   0.00000000000000E+00   0.00000000000000E+00
      0.00000000000000E+00   0.00000000000000E+00  -1.03626151963352E-18  -7.06668840859849E-17  -7.17031456056184E-17
     -4.99724055098052E-15  -1.01771747599451E+01  -1.01771747599451E+01   0.00000000000000E+00   0.00000000000000E+00
     -2.29566457943949E-17  -1.28000300796809E-15  -1.30295965376248E-15  -2.04562863574695E-15
      2.13543495198903E-01
      8.00000000000000E-01   8.00000000000000E-01   0.00000000000000E+00   0.00000000000000E+00   1.37354527898545E-15
      1.73587321733342E-17   1.39090401115878E-15   7.02556367728326E-15   0.00000000000000E+00   0.00000000000000E+00
      0.00000000000000E+00   0.00000000000000E+00  -1.03625705820221E-18  -5.15797804078828E-17  -5.26160374660850E-17
     -4.97172984243921E-15  -1.06771747599451E+01  -1.06771747599451E+01   0.00000000000000E+00   0.00000000000000E+00
     -2.29569247401201E-17  -1.31533104895258E-15  -1.33828797369270E-15  -2.05383383484405E-15
      2.23543495198903E-01
      8.00000000000000E-01   8.00000000000000E-01   0.00000000000000E+00   0.00000000000000E+00   1.37373763502781E-15
      6.96886557813940E-18   1.38070650060595E-15   7.00848217676621E-15   0.00000000000000E+00   0.00000000000000E+00
      0.00000000000000E+00   0.00000000000000E+00  -1.03625260377543E-18   1.29646311463690E-17   1.19283785425936E-17
     -4.94620691364332E-15  -1.11771747599451E+01  -1.11771747599451E+01   0.00000000000000E+00   0.00000000000000E+00
     -2.29572121639520E-17  -1.36967766698459E-15  -1.39263487914855E-15  -2.06227526312289E-15
      2.33543495198903E-01
      8.00000000000000E-01   8.00000000000000E-01   0.00000000000000E+00   0.00000000000000E+00   1.37360884768965E-15
      7.59476469475406E-18   1.38120361238441E-15   6.99162623566950E-15   0.00000000000000E+00   0.00000000000000E+00
      0.00000000000000E+00   0.00000000000000E+00  -1.03624816742235E-18   2.34578204237201E-16   2.33541956069779E-16
     -4.92067437204444E-15  -1.16771747599451E+01  -1.16771747599451E+01   0.00000000000000E+00   0.00000000000000E+00
     -2.29575080621036E-17  -1.59178806039208E-15  -1.61474556845419E-15  -2.07095186362505E-15
      2.43543495198903E-01
      8.00000000000000E-01   8.00000000000000E-01   0.00000000000000E+00   0.00000000000000E+00   1.37332462511054E-15
     -4.46894246737951E-19   1.37287773086381E-15   6.97499644626306E-15   0.00000000000000E+00   0.00000000000000E+00
      0.00000000000000E+00   0.00000000000000E+00  -1.03624373193858E-18   9.83128261429862E-16   9.82092017697923E-16
     -4.89513389849758E-15  -1.21771747599451E+01  -1.21771747599451E+01   0.00000000000000E+00   0.00000000000000E+00
     -2.29578124303865E-17  -2.33201193613134E-15  -2.35496974856172E-15  -2.07986254776547E-15
      2.53543495198903E-01
      8.00000000000000E-01   8.00000000000000E-01   0.00000000000000E+00   0.00000000000000E+00   1.37295834814798E-15
      1.62960389989519E-17   1.38925438714693E-15   6.95859348006617E-15   0.00000000000000E+00   0.00000000000000E+00
      0.00000000000000E+00   0.00000000000000E+00  -1.03623930286356E-18   3.43951408616553E-15   3.43847784686267E-15
     -4.86958727096125E-15  -1.26771747599451E+01  -1.26771747599451E+01   0.00000000000000E+00   0.00000000000000E+00
     -2.29581252646629E-17  -4.80477410874493E-15  -4.82773223400959E-15  -2.08900620910489E-15
      2.63543495198903E-01
      8.00000000000000E-01   8.00000000000000E-01   0.00000000000000E+00   0.00000000000000E+00   1.37253180355430E-15
     -2.06889629237042E-17   1.35184284063059E-15   6.94241858926784E-15   0.00000000000000E+00   0.00000000000000E+00
      0.00000000000000E+00   0.00000000000000E+00  -1.03623492843121E-18   1.12367331213996E-14   1.12356968864712E-14
     -4.84403686278642E-15  -1.31771747599451E+01  -1.31771747599451E+01   0.00000000000000E+00   0.00000000000000E+00
     -2.29584465609428E-17  -1.25645812805408E-14  -1.25875397271018E-14  -2.09838172648141E-15
      2.73543495198903E-01
      8.00000000000000E-01   8.00000000000000E-01   0.00000000000000E+00   0.00000000000000E+00   1.37203550971443E-15
      2.08820433987204E-17   1.39291755311315E-15   6.92647400553594E-15   0.00000000000000E+00   0.00000000000000E+00
      0.00000000000000E+00   0.00000000000000E+00  -1.03623052257536E-18   3.51403781510504E-14   3.51393419205278E-14
     -4.81848603883105E-15  -1.36771747599451E+01  -1.36771747599451E+01   0.00000000000000E+00   0.00000000000000E+00
     -2.29587763154730E-17  -3.65093006973255E-14  -3.65322594736410E-14  -2.10798796670488E-15
      2.83543495198903E-01
      8.00000000000000E-01   8.00000000000000E-01   0.00000000000000E+00   0.00000000000000E+00   1.37142794842195E-15
      2.65096924999495E-17   1.39793764092190E-15   6.91076339875155E-15   0.00000000000000E+00  -9.18447372075268E-17
      0.00000000000000E+00   0.00000000000000E+00  -1.03622611862260E-18   1.05855737645368E-13   1.05854701419249E-13
     -4.79293960614506E-15  -1.41771747599451E+01  -1.41771747599451E+01   0.00000000000000E+00   0.00000000000000E+00
     -2.29591145249963E-17  -1.07229679945646E-13  -1.07252639060171E-13  -2.11782379260652E-15
      2.93543495198903E-01
      8.00000000000000E-01   8.00000000000000E-01   0.00000000000000E+00   0.00000000000000E+00   1.37061101823947E-15
     -4.03887355899044E-18   1.36657214468047E-15   6.89529249299189E-15   0.00000000000000E+00  -2.75534211622580E-16
      0.00000000000000E+00   0.00000000000000E+00  -1.03622143336124E-18   3.07604878999107E-13   3.07603842777674E-13
     -4.76740440843505E-15  -1.46771747599451E+01  -1.46771747599451E+01   0.00000000000000E+00   0.00000000000000E+00
     -2.29594611874946E-17  -3.08947455461166E-13  -3.08970414922354E-13  -2.12788808455684E-15
      3.03543495198903E-01
      8.00000000000000E-01   8.00000000000000E-01   0.00000000000000E+00   0.00000000000000E+00   1.36936828105876E-15
     -4.17174101842969E-17   1.32765087087446E-15   6.88006994856818E-15   0.00000000000000E+00  -8.26602634867741E-16
      0.00000000000000E+00   0.00000000000000E+00  -1.03621618184887E-18   8.62324810884940E-13   8.62323774668758E-13
     -4.74189015606598E-15  -1.51771747599451E+01  -1.51771747599451E+01   0.00000000000000E+00   0.00000000000000E+00
     -2.29598163040008E-17  -8.63628465723325E-13  -8.63651425539629E-13  -2.13817979250220E-15
      3.13543495198903E-01
      8.00000000000000E-01   8.00000000000000E-01   0.00000000000000E+00   0.00000000000000E+00   1.36722863329748E-15
      1.24899225203549E-17   1.37971855581784E-15   6.86510868090612E-15   0.00000000000000E+00  -2.29611843018817E-15
      0.00000000000000E+00   0.00000000000000E+00  -1.03621160790303E-18   2.33115335363559E-12   2.33115231742398E-12
     -4.71641062520757E-15  -1.56771747599451E+01  -1.56771747599451E+01   0.00000000000000E+00   0.00000000000000E+00
     -2.29601798827786E-17  -2.33250907579992E-12  -2.33253203597981E-12  -2.14869805569854E-15
      3.23543495198903E-01
      8.00000000000000E-01   8.00000000000000E-01   0.00000000000000E+00   0.00000000000000E+00   1.36317970714923E-15
      2.29643713542147E-17   1.38614407850345E-15   6.85042790768055E-15   0.00000000000000E+00  -6.06175265569677E-15
      0.00000000000000E+00   0.00000000000000E+00  -1.03620422588082E-18   6.07310126472226E-12   6.07310022851804E-12
     -4.69098544020623E-15  -1.61771747599451E+01  -1.61771747599451E+01   0.00000000000000E+00   0.00000000000000E+00
     -2.29605519486235E-17  -6.07446341204459E-12  -6.07448637259654E-12  -2.15944246747432E-15
      3.33543495198903E-01
      8.00000000000000E-01   8.00000000000000E-01   0.00000000000000E+00   0.00000000000000E+00   1.35512069147690E-15
     -1.42201972868845E-17   1.34090049419001E-15   6.83605640974908E-15   0.00000000000000E+00  -1.52462263764494E-14
      0.00000000000000E+00   0.00000000000000E+00  -1.03619023652148E-18   1.52337645474107E-11   1.52337635112205E-11
     -4.66564277496760E-15  -1.66771747599451E+01  -1.66771747599451E+01   0.00000000000000E+00   0.00000000000000E+00
     -2.29609325625815E-17  -1.52350814507820E-11  -1.52351044117146E-11  -2.17041363478149E-15
      3.43543495198903E-01
      8.00000000000000E-01   8.00000000000000E-01   0.00000000000000E+00   0.00000000000000E+00   1.33898762101268E-15
     -2.36984644671862E-18   1.33661777456596E-15   6.82203774518150E-15   0.00000000000000E+00  -3.67378948830107E-14
      0.00000000000000E+00   0.00000000000000E+00  -1.03616002259192E-18   3.67489103943634E-11   3.67489093582034E-11
     -4.64042344867565E-15  -1.71771747599451E+01  -1.71771747599451E+01   0.00000000000000E+00   0.00000000000000E+00
     -2.29613218614780E-17  -3.67502230146564E-11  -3.67502459759783E-11  -2.18161429650584E-15
      3.53543495198903E-01
      8.00000000000000E-01   8.00000000000000E-01   0.00000000000000E+00   0.00000000000000E+00   1.30786001624867E-15
     -1.20387075683056E-17   1.29582130868036E-15   6.80843834904860E-15   0.00000000000000E+00  -8.51400713913773E-14
      0.00000000000000E+00   0.00000000000000E+00  -1.03609350321578E-18   8.51160903074987E-11   8.51160892714052E-11
     -4.61538694230865E-15  -1.76771747599451E+01  -1.76771747599451E+01   0.00000000000000E+00   0.00000000000000E+00
     -2.29617201317997E-17  -8.51173621309942E-11  -8.51173850927143E-11  -2.19305140673997E-15
      3.63543495198903E-01
      8.00000000000000E-01   8.00000000000000E-01   0.00000000000000E+00   0.00000000000000E+00   1.25245704590141E-15
     -1.73584319031738E-17   1.23509861399824E-15   6.79535921294497E-15   0.00000000000000E+00  -1.88832779698675E-13
      0.00000000000000E+00   0.00000000000000E+00  -1.03595750728265E-18   1.88854547073714E-10   1.88854546037756E-10
     -4.59061954143655E-15  -1.81771747599451E+01  -1.81771747599450E+01   0.00000000000000E+00   0.00000000000000E+00
     -2.29621279356157E-17  -1.88855758174242E-10  -1.88855781136370E-10  -2.20473967150843E-15
      3.73543495198903E-01
      8.00000000000000E-01   8.00000000000000E-01   0.00000000000000E+00   0.00000000000000E+00   1.16548795284412E-15
      2.93336246766436E-18   1.16842131531179E-15   6.78295039719965E-15   0.00000000000000E+00  -4.00167520013194E-13
      0.00000000000000E+00   0.00000000000000E+00  -1.03571463555612E-18   4.00196044114353E-10   4.00196043078639E-10
     -4.56624358900487E-15  -1.86771747599451E+01  -1.86771747599447E+01   0.00000000000000E+00   0.00000000000000E+00
     -2.29625462987641E-17  -4.00197188537406E-10  -4.00197211499952E-10  -2.21670680819477E-15
      3.83543495198903E-01
      8.00000000000000E-01   8.00000000000000E-01   0.00000000000000E+00   0.00000000000000E+00   1.04920218195082E-15
      1.29186333457876E-17   1.06212081529660E-15   6.77142404735984E-15   0.00000000000000E+00  -8.06856016368123E-13
      0.00000000000000E+00   0.00000000000000E+00  -1.03534913577341E-18   8.06852674374848E-10   8.06852673339499E-10
     -4.54242418936047E-15  -1.91771747599451E+01  -1.91771747599443E+01   0.00000000000000E+00   0.00000000000000E+00
     -2.29629769386408E-17  -8.06853712497332E-10  -8.06853735460309E-10  -2.22899985799937E-15
      3.93543495198903E-01
      8.00000000000000E-01   8.00000000000000E-01   0.00000000000000E+00   0.00000000000000E+00   9.17729978314443E-16
      1.11493054723304E-17   9.28879283786773E-16   6.76105624787339E-15   0.00000000000000E+00  -1.54124653507951E-12
      0.00000000000000E+00   0.00000000000000E+00  -1.03488447706236E-18   1.54122001591589E-09   1.54122001488101E-09
     -4.51936626695295E-15  -1.96771747599451E+01  -1.96771747599436E+01   0.00000000000000E+00   0.00000000000000E+00
     -2.29634224413606E-17  -1.54122092079687E-09  -1.54122094376029E-09  -2.24168998092042E-15
      4.03543495198903E-01
      8.00000000000000E-01   8.00000000000000E-01   0.00000000000000E+00   0.00000000000000E+00   7.88703050668792E-16
      8.34891441565105E-18   7.97051965084444E-16   6.75216547848980E-15   0.00000000000000E+00  -2.77885436895093E-12
      0.00000000000000E+00   0.00000000000000E+00  -1.03436310964914E-18   2.77881066135499E-09   2.77881066032062E-09
     -4.49729420105865E-15  -2.01771747599451E+01  -2.01771747599424E+01   0.00000000000000E+00   0.00000000000000E+00
     -2.29638862298153E-17  -2.77881143440872E-09  -2.77881145737260E-09  -2.25487127743115E-15
      4.13543495198903E-01
      8.00000000000000E-01   8.00000000000000E-01   0.00000000000000E+00   0.00000000000000E+00   6.73476794201609E-16
      2.30406270076372E-17   6.96517421209246E-16   6.74506374607677E-15   0.00000000000000E+00  -4.71916628719714E-12
      0.00000000000000E+00   0.00000000000000E+00  -1.03381229005354E-18   4.71919730463402E-09   4.71919730360021E-09
     -4.47641363814922E-15  -2.06771747599451E+01  -2.06771747599404E+01   0.00000000000000E+00   0.00000000000000E+00
     -2.29643721944813E-17  -4.71919797715321E-09  -4.71919800011758E-09  -2.26865010792754E-15
      4.23543495198903E-01
      8.00000000000000E-01   8.00000000000000E-01   0.00000000000000E+00   0.00000000000000E+00   5.75457012290407E-16
      1.68870392069870E-17   5.92344051497394E-16   6.73999617765992E-15   0.00000000000000E+00  -7.55285196426096E-12
      0.00000000000000E+00   0.00000000000000E+00  -1.03323411856462E-18   7.55282723532990E-09   7.55282723429666E-09
     -4.45686923407475E-15  -2.11771747599451E+01  -2.11771747599376E+01   0.00000000000000E+00   0.00000000000000E+00
     -2.29648840543615E-17  -7.55282780367577E-09  -7.55282782664065E-09  -2.28312694358517E-15
      4.33543495198903E-01
      8.00000000000000E-01   8.00000000000000E-01   0.00000000000000E+00   0.00000000000000E+00   4.93856673598756E-16
      5.23560706036895E-18   4.99092280659125E-16   6.73709832428569E-15   0.00000000000000E+00  -1.14286080296814E-11
      0.00000000000000E+00   0.00000000000000E+00  -1.03261647038348E-18   1.14286245349628E-08   1.14286245339302E-08
     -4.43871935800494E-15  -2.16771747599451E+01  -2.16771747599337E+01   0.00000000000000E+00   0.00000000000000E+00
     -2.29654247366254E-17  -1.14286250100569E-08  -1.14286250330223E-08  -2.29837896628074E-15
      4.43543495198903E-01
      8.00000000000000E-01   8.00000000000000E-01   0.00000000000000E+00   0.00000000000000E+00   4.26727043661232E-16
      1.04665062192335E-17   4.37193549880465E-16   6.73638979543577E-15   0.00000000000000E+00  -1.64372689285566E-11
      0.00000000000000E+00   0.00000000000000E+00  -1.03194439344100E-18   1.64372815041901E-08   1.64372815031582E-08
     -4.42193839473083E-15  -2.21771747599451E+01  -2.21771747599287E+01   0.00000000000000E+00   0.00000000000000E+00
     -2.29659960597731E-17  -1.64372819173854E-08  -1.64372819403514E-08  -2.31445140070493E-15
      4.53543495198903E-01
      8.00000000000000E-01   8.00000000000000E-01   0.00000000000000E+00   0.00000000000000E+00   3.71894528230229E-16
      8.81966611484128E-19   3.72776494841713E-16   6.73779847310878E-15   0.00000000000000E+00  -2.26133682820768E-11
      0.00000000000000E+00   0.00000000000000E+00  -1.03120484776729E-18   2.26133328264761E-08   2.26133328254449E-08
     -4.40643943928331E-15  -2.26771747599451E+01  -2.26771747599225E+01   0.00000000000000E+00   0.00000000000000E+00
     -2.29665987764975E-17  -2.26133331752545E-08  -2.26133331982211E-08  -2.33135903382548E-15
      4.63543495198903E-01
      8.00000000000000E-01   8.00000000000000E-01   0.00000000000000E+00   0.00000000000000E+00   3.27173317153953E-16
      6.64872860709694E-18   3.33822045761050E-16   6.74119613153206E-15   0.00000000000000E+00  -2.99486400638931E-11