DF-ISE text

Info {
  version   = 1.0
  type      = xyplot
  datasets  = [
    "time"
    "Ntop OuterVoltage" "Ntop InnerVoltage" "Ntop QuasiFermiPotential" "Ntop DisplacementCurrent" "Ntop eCurrent"
    "Ntop hCurrent" "Ntop TotalCurrent" "Ntop Charge" "Ptop OuterVoltage" "Ptop InnerVoltage"
    "Ptop QuasiFermiPotential" "Ptop DisplacementCurrent" "Ptop eCurrent" "Ptop hCurrent" "Ptop TotalCurrent"
    "Ptop Charge" "Pbot OuterVoltage" "Pbot InnerVoltage" "Pbot QuasiFermiPotential" "Pbot DisplacementCurrent"
    "Pbot eCurrent" "Pbot hCurrent" "Pbot TotalCurrent" "Pbot Charge" ]
  functions = [
    Time
    OuterVoltage InnerVoltage QuasiFermiPotential DisplacementCurrent eCurrent
    hCurrent TotalCurrent Charge OuterVoltage InnerVoltage
    QuasiFermiPotential DisplacementCurrent eCurrent hCurrent TotalCurrent
    Charge OuterVoltage InnerVoltage QuasiFermiPotential DisplacementCurrent
    eCurrent hCurrent TotalCurrent Charge ]
}

Data {
      1.00000000000000E-03
      8.00000000000000E-01   8.00000000000000E-01   0.00000000000000E+00   0.00000000000000E+00   5.55172903405348E-16
      7.08795780076246E-19   5.55881699185425E-16   3.48430198709694E-15   0.00000000000000E+00   0.00000000000000E+00
      0.00000000000000E+00   0.00000000000000E+00  -1.03632357341850E-18  -6.16607214720256E-17  -6.26970450454441E-17
     -1.55871774893997E-15  -5.00000000000000E-02  -5.00000000000000E-02   0.00000000000000E+00   0.00000000000000E+00
     -2.29526236924420E-17  -4.70232030447538E-16  -4.93184654139980E-16  -1.92558423815697E-15
      2.91111111111111E-03
      8.00000000000000E-01   8.00000000000000E-01   0.00000000000000E+00   0.00000000000000E+00   5.86789745975691E-16
      2.06344737729132E-19   5.86996090713420E-16   3.48518385048974E-15   0.00000000000000E+00   0.00000000000000E+00
      0.00000000000000E+00   0.00000000000000E+00  -1.03632357290089E-18  -6.15137758585812E-17  -6.25500994314820E-17
     -1.55871622917329E-15  -1.45555555555556E-01  -1.45555555555555E-01   0.00000000000000E+00   0.00000000000000E+00
     -2.29526526249434E-17  -5.01493338656995E-16  -5.24445991281938E-16  -1.92646762131645E-15
      6.56345679012346E-03
      8.00000000000000E-01   8.00000000000000E-01   0.00000000000000E+00   0.00000000000000E+00   6.43262165503077E-16
     -1.94283347787121E-19   6.43067882155289E-16   3.48686536589676E-15   0.00000000000000E+00   0.00000000000000E+00
      0.00000000000000E+00   0.00000000000000E+00  -1.03632357129629E-18  -6.13022064253311E-17  -6.23385299966274E-17
     -1.55871151792177E-15  -3.28172839506173E-01  -3.28172839506173E-01   0.00000000000000E+00   0.00000000000000E+00
     -2.29527079299785E-17  -5.57776644228684E-16  -5.80729352158663E-16  -1.92815384797499E-15
      1.35434951989026E-02
      8.00000000000000E-01   8.00000000000000E-01   0.00000000000000E+00   0.00000000000000E+00   7.40415194431996E-16
     -6.23288751974544E-19   7.39791905680021E-16   3.49005928157208E-15   0.00000000000000E+00   0.00000000000000E+00
      0.00000000000000E+00   0.00000000000000E+00  -1.03632356393450E-18  -6.09612627033709E-17  -6.19975862673054E-17
     -1.55868990361537E-15  -6.77174759945130E-01  -6.77174759945130E-01   0.00000000000000E+00   0.00000000000000E+00
     -2.29528136305315E-17  -6.54841505782184E-16  -6.77794319412716E-16  -1.93136937795670E-15
      2.35434951989026E-02
      8.00000000000000E-01   8.00000000000000E-01   0.00000000000000E+00   0.00000000000000E+00   8.62180923940331E-16
     -1.07619289039424E-18   8.61104731049937E-16   3.49454559868002E-15   0.00000000000000E+00   0.00000000000000E+00
      0.00000000000000E+00   0.00000000000000E+00  -1.03632352726178E-18  -6.06172013843563E-17  -6.16535249116181E-17
     -1.55858225237205E-15  -1.17717475994513E+00  -1.17717475994513E+00   0.00000000000000E+00   0.00000000000000E+00
     -2.29529650706907E-17  -7.76498241067629E-16  -7.99451206138319E-16  -1.93596334630796E-15
      3.35434951989026E-02
      8.00000000000000E-01   8.00000000000000E-01   0.00000000000000E+00   0.00000000000000E+00   9.66784982509794E-16
      3.31734306211713E-18   9.70102325571911E-16   3.49877803882142E-15   0.00000000000000E+00   0.00000000000000E+00
      0.00000000000000E+00   0.00000000000000E+00  -1.03632340229858E-18  -6.04368078253368E-17  -6.14731312276354E-17
     -1.55821546025285E-15  -1.67717475994513E+00  -1.67717475994513E+00   0.00000000000000E+00   0.00000000000000E+00
     -2.29531170836587E-17  -8.85676077260617E-16  -9.08629194344276E-16  -1.94056257856856E-15
      4.35434951989026E-02
      8.00000000000000E-01   8.00000000000000E-01   0.00000000000000E+00   0.00000000000000E+00   1.05170752986966E-15
     -1.64426849806243E-18   1.05006326137160E-15   3.50242785728205E-15   0.00000000000000E+00   0.00000000000000E+00
      0.00000000000000E+00   0.00000000000000E+00  -1.03632305868805E-18  -6.04692363849870E-17  -6.15055594436751E-17
     -1.55720572818716E-15  -2.17717475994513E+00  -2.17717475994513E+00   0.00000000000000E+00   0.00000000000000E+00
     -2.29532714258227E-17  -9.65604430502102E-16  -9.88557701927925E-16  -1.94522212909489E-15
      5.35434951989026E-02
      8.00000000000000E-01   8.00000000000000E-01   0.00000000000000E+00   0.00000000000000E+00   1.11999702844363E-15
     -2.14252386237147E-18   1.11785450458126E-15   3.50493808378722E-15   0.00000000000000E+00   0.00000000000000E+00
      0.00000000000000E+00   0.00000000000000E+00  -1.03632229061710E-18  -6.08646182626938E-17  -6.19009405533109E-17
     -1.55493868251564E-15  -2.67717475994513E+00  -2.67717475994513E+00   0.00000000000000E+00   0.00000000000000E+00
     -2.29534299699356E-17  -1.03300013405801E-15  -1.05595356402794E-15  -1.94999940127158E-15
      6.35434951989026E-02
      8.00000000000000E-01   8.00000000000000E-01   0.00000000000000E+00   0.00000000000000E+00   1.17445751390014E-15
      9.66659549877603E-19   1.17542417345001E-15   3.50570079269843E-15   0.00000000000000E+00   0.00000000000000E+00
      0.00000000000000E+00   0.00000000000000E+00  -1.03632089291151E-18  -6.17529342955751E-17  -6.27892551884866E-17
     -1.55076186062238E-15  -3.17717475994513E+00  -3.17717475994513E+00   0.00000000000000E+00   0.00000000000000E+00
     -2.29535941854501E-17  -1.08968132407607E-15  -1.11263491826152E-15  -1.95493893207606E-15
      7.35434951989026E-02
      8.00000000000000E-01   8.00000000000000E-01   0.00000000000000E+00   0.00000000000000E+00   1.21739534534396E-15
      6.72269822937848E-18   1.22411804357334E-15   3.50445501295934E-15   0.00000000000000E+00   0.00000000000000E+00
      0.00000000000000E+00   0.00000000000000E+00  -1.03631880675416E-18  -6.33394547069311E-17  -6.43757735136852E-17
     -1.54438234034788E-15  -3.67717475994513E+00  -3.67717475994513E+00   0.00000000000000E+00   0.00000000000000E+00
     -2.29537651379437E-17  -1.13678850492171E-15  -1.15974227005966E-15  -1.96007267261147E-15
      8.35434951989026E-02
      8.00000000000000E-01   8.00000000000000E-01   0.00000000000000E+00   0.00000000000000E+00   1.25100489533591E-15
     -1.06160583349931E-19   1.25089873475256E-15   3.50147998173243E-15   0.00000000000000E+00   0.00000000000000E+00
      0.00000000000000E+00   0.00000000000000E+00  -1.03631616733494E-18  -6.58511654756291E-17  -6.68874816429640E-17
     -1.53605602877088E-15  -4.17717475994513E+00  -4.17717475994513E+00   0.00000000000000E+00   0.00000000000000E+00
     -2.29539436152810E-17  -1.16105730949431E-15  -1.18401125310960E-15  -1.96542395296156E-15
      9.35434951989026E-02
      8.00000000000000E-01   8.00000000000000E-01   0.00000000000000E+00   0.00000000000000E+00   1.27725801381676E-15
      1.04022601229931E-17   1.28766027393976E-15   3.49727286681795E-15   0.00000000000000E+00   0.00000000000000E+00
      0.00000000000000E+00   0.00000000000000E+00  -1.03631316453202E-18  -6.89628560949490E-17  -6.99991692594811E-17
     -1.52626420150699E-15  -4.67717475994513E+00  -4.67717475994513E+00   0.00000000000000E+00   0.00000000000000E+00
     -2.29541301636399E-17  -1.19470697451664E-15  -1.21766110468028E-15  -1.97100866531096E-15
      1.03543495198903E-01
      8.00000000000000E-01   8.00000000000000E-01   0.00000000000000E+00   0.00000000000000E+00   1.29701763645773E-15
     -3.33011562994945E-18   1.29368752082779E-15   3.49222028396503E-15   0.00000000000000E+00   0.00000000000000E+00
      0.00000000000000E+00   0.00000000000000E+00  -1.03630993038500E-18  -7.18380175829007E-17  -7.28743275132857E-17
     -1.51538514700723E-15  -5.17717475994513E+00  -5.17717475994513E+00   0.00000000000000E+00   0.00000000000000E+00
     -2.29543250807644E-17  -1.19785886823374E-15  -1.22081319331450E-15  -1.97683513695781E-15
      1.13543495198903E-01
      8.00000000000000E-01   8.00000000000000E-01   0.00000000000000E+00   0.00000000000000E+00   1.31111427706742E-15
     -4.51913198192058E-19   1.31066236386923E-15   3.48655516645338E-15   0.00000000000000E+00   0.00000000000000E+00
      0.00000000000000E+00   0.00000000000000E+00  -1.03630653710218E-18  -7.36659059385447E-17  -7.47022124756469E-17
     -1.50364872561039E-15  -5.67717475994513E+00  -5.67717475994513E+00   0.00000000000000E+00   0.00000000000000E+00
     -2.29545284912582E-17  -1.21300562290233E-15  -1.23596015139358E-15  -1.98290644084299E-15
      1.23543495198903E-01
      8.00000000000000E-01   8.00000000000000E-01   0.00000000000000E+00   0.00000000000000E+00   1.32118771309113E-15
      9.42352855816273E-19   1.32213006594695E-15   3.48041312651639E-15   0.00000000000000E+00   0.00000000000000E+00
      0.00000000000000E+00   0.00000000000000E+00  -1.03630302338133E-18  -7.44621340213938E-17  -7.54984370447751E-17
     -1.49119030855269E-15  -6.17717475994513E+00  -6.17717475994513E+00   0.00000000000000E+00   0.00000000000000E+00
     -2.29547404264810E-17  -1.22367688847569E-15  -1.24663162890217E-15  -1.98922281796371E-15
      1.33543495198903E-01
      8.00000000000000E-01   8.00000000000000E-01   0.00000000000000E+00   0.00000000000000E+00   1.32879030535584E-15
      8.96728430409421E-18   1.33775758965993E-15   3.47387722343687E-15   0.00000000000000E+00   0.00000000000000E+00
      0.00000000000000E+00   0.00000000000000E+00  -1.03629941159504E-18  -7.46415697885648E-17  -7.56778692001599E-17
     -1.47809411349188E-15  -6.67717475994513E+00  -6.67717475994513E+00   0.00000000000000E+00   0.00000000000000E+00
     -2.29549608719447E-17  -1.23912475958783E-15  -1.26207972045977E-15  -1.99578310994499E-15
      1.43543495198903E-01
      8.00000000000000E-01   8.00000000000000E-01   0.00000000000000E+00   0.00000000000000E+00   1.33486057696252E-15
     -1.42267090660978E-18   1.33343790605591E-15   3.46700194964685E-15   0.00000000000000E+00   0.00000000000000E+00
      0.00000000000000E+00   0.00000000000000E+00  -1.03629571602508E-18  -7.44525604736204E-17  -7.54888561896455E-17
     -1.46441646521718E-15  -7.17717475994513E+00  -7.17717475994513E+00   0.00000000000000E+00   0.00000000000000E+00
     -2.29551897913401E-17  -1.23499386007492E-15  -1.25794904986626E-15  -2.00258548442966E-15
      1.53543495198903E-01
      8.00000000000000E-01   8.00000000000000E-01   0.00000000000000E+00   0.00000000000000E+00   1.33988311935790E-15
      5.93428487795541E-20   1.33994246220668E-15   3.45982533617068E-15   0.00000000000000E+00   0.00000000000000E+00
      0.00000000000000E+00   0.00000000000000E+00  -1.03629194663995E-18  -7.40289424337249E-17  -7.50652343803649E-17
     -1.45019753705100E-15  -7.67717475994513E+00  -7.67717475994513E+00   0.00000000000000E+00   0.00000000000000E+00
     -2.29554271386070E-17  -1.24192180068771E-15  -1.26487722782632E-15  -2.00962779911968E-15
      1.63543495198903E-01
      8.00000000000000E-01   8.00000000000000E-01   0.00000000000000E+00   0.00000000000000E+00   1.34411198126807E-15
     -6.07215275269270E-18   1.33803982851538E-15   3.45237529103761E-15   0.00000000000000E+00   0.00000000000000E+00
      0.00000000000000E+00   0.00000000000000E+00  -1.03628811091173E-18  -7.34711123907708E-17  -7.45074005016826E-17
     -1.43546749935711E-15  -8.17717475994513E+00  -8.17717475994513E+00   0.00000000000000E+00   0.00000000000000E+00
     -2.29556728642310E-17  -1.24057675514946E-15  -1.26353242801369E-15  -2.01690779168052E-15
      1.73543495198903E-01
      8.00000000000000E-01   8.00000000000000E-01   0.00000000000000E+00   0.00000000000000E+00   1.34770559912660E-15
      2.38540029748164E-18   1.35009099942408E-15   3.44467315131892E-15   0.00000000000000E+00   0.00000000000000E+00
      0.00000000000000E+00   0.00000000000000E+00  -1.03628421476262E-18  -7.27095586525740E-17  -7.37458428673366E-17
     -1.42024996792905E-15  -8.67717475994513E+00  -8.67717475994513E+00   0.00000000000000E+00   0.00000000000000E+00
     -2.29559269186887E-17  -1.25338922963806E-15  -1.27634515655675E-15  -2.02442318338987E-15
      1.83543495198903E-01
      8.00000000000000E-01   8.00000000000000E-01   0.00000000000000E+00   0.00000000000000E+00   1.35078996422429E-15
      5.37219038955845E-18   1.35616215461385E-15   3.43673581294862E-15   0.00000000000000E+00   0.00000000000000E+00
      0.00000000000000E+00   0.00000000000000E+00  -1.03628026309963E-18  -7.18847198082196E-17  -7.29210000713192E-17
     -1.40456407618871E-15  -9.17717475994513E+00  -9.17717475994513E+00   0.00000000000000E+00   0.00000000000000E+00
     -2.29561892543608E-17  -1.26028496528817E-15  -1.28324115454253E-15  -2.03217173675992E-15
      1.93543495198903E-01
      8.00000000000000E-01   8.00000000000000E-01   0.00000000000000E+00   0.00000000000000E+00   1.35347203531915E-15
     -9.25112515408982E-18   1.34422091016506E-15   3.42857707364313E-15   0.00000000000000E+00   0.00000000000000E+00
      0.00000000000000E+00   0.00000000000000E+00  -1.03627626013677E-18  -7.09052106567533E-17  -7.19414869168901E-17
     -1.38842578756119E-15  -9.67717475994513E+00  -9.67717475994513E+00   0.00000000000000E+00   0.00000000000000E+00
     -2.29564598265480E-17  -1.24932296342162E-15  -1.27227942324817E-15  -2.04015128608195E-15
      2.03543495198903E-01
      8.00000000000000E-01   8.00000000000000E-01   0.00000000000000E+00   0.00000000000000E+00   1.35582908700019E-15
     -1.63223917888648E-17   1.33950669521132E-15   3.42020851074965E-15   0.00000000000000E+00   0.00000000000000E+00
      0.00000000000000E+00   0.00000000000000E+00  -1.03627220959820E-18  -6.96548065621068E-17  -7.06910787717050E-17
     -1.37184875964732E-15  -1.01771747599451E+01  -1.01771747599451E+01   0.00000000000000E+00   0.00000000000000E+00
     -2.29567385939367E-17  -1.24585887784568E-15  -1.26881561643962E-15  -2.04835975110233E-15
      2.13543495198903E-01
      8.00000000000000E-01   8.00000000000000E-01   0.00000000000000E+00   0.00000000000000E+00   1.35792954574268E-15
     -7.91030535791739E-18   1.35001924038476E-15   3.41164008239370E-15   0.00000000000000E+00   0.00000000000000E+00
      0.00000000000000E+00   0.00000000000000E+00  -1.03626811485237E-18  -6.76882076307730E-17  -6.87244757456254E-17
     -1.35484494172021E-15  -1.06771747599451E+01  -1.06771747599451E+01   0.00000000000000E+00   0.00000000000000E+00
     -2.29570255187173E-17  -1.25833773912042E-15  -1.28129476463913E-15  -2.05679514067349E-15
      2.23543495198903E-01
      8.00000000000000E-01   8.00000000000000E-01   0.00000000000000E+00   0.00000000000000E+00   1.35984297784149E-15
      2.49567145781965E-18   1.36233864929931E-15   3.40288057852937E-15   0.00000000000000E+00   0.00000000000000E+00
      0.00000000000000E+00   0.00000000000000E+00  -1.03626397900647E-18  -6.34196076230196E-17  -6.44558716020260E-17
     -1.33742502689858E-15  -1.11771747599451E+01  -1.11771747599451E+01   0.00000000000000E+00   0.00000000000000E+00
     -2.29573205665441E-17  -1.27492545713074E-15  -1.29788277769729E-15  -2.06545555163080E-15
      2.33543495198903E-01
      8.00000000000000E-01   8.00000000000000E-01   0.00000000000000E+00   0.00000000000000E+00   1.36161729404613E-15
      7.98675602893194E-18   1.36960405007507E-15   3.39393801443264E-15   0.00000000000000E+00   0.00000000000000E+00
      0.00000000000000E+00   0.00000000000000E+00  -1.03625980497974E-18  -5.15365055451515E-17  -5.25727653501313E-17
     -1.31959884748590E-15  -1.16771747599451E+01  -1.16771747599451E+01   0.00000000000000E+00   0.00000000000000E+00
     -2.29576237064846E-17  -1.29407366101845E-15  -1.31703128472493E-15  -2.07433916694674E-15
      2.43543495198903E-01
      8.00000000000000E-01   8.00000000000000E-01   0.00000000000000E+00   0.00000000000000E+00   1.36328338200268E-15
      3.63547734957463E-18   1.36691885935225E-15   3.38482003851542E-15   0.00000000000000E+00   0.00000000000000E+00
      0.00000000000000E+00   0.00000000000000E+00  -1.03625559556736E-18  -1.43410451028376E-17  -1.53773006984049E-17
     -1.30137578234622E-15  -1.21771747599451E+01  -1.21771747599451E+01   0.00000000000000E+00   0.00000000000000E+00
     -2.29579349110299E-17  -1.32858362374281E-15  -1.35154155865384E-15  -2.08344425616920E-15
      2.53543495198903E-01
      8.00000000000000E-01   8.00000000000000E-01   0.00000000000000E+00   0.00000000000000E+00   1.36486252237140E-15
     -5.36767799432279E-19   1.36432575457196E-15   3.37553441413375E-15   0.00000000000000E+00   0.00000000000000E+00
      0.00000000000000E+00   0.00000000000000E+00  -1.03625135350218E-18   1.06047683932461E-16   1.05011432578959E-16
     -1.28276523382417E-15  -1.26771747599451E+01  -1.26771747599451E+01   0.00000000000000E+00   0.00000000000000E+00
     -2.29582541562789E-17  -1.44637893299465E-15  -1.46933718715093E-15  -2.09276918030958E-15
      2.63543495198903E-01
      8.00000000000000E-01   8.00000000000000E-01   0.00000000000000E+00   0.00000000000000E+00   1.36636684506441E-15
     -1.14053261091889E-17   1.35496151895522E-15   3.36608962589849E-15   0.00000000000000E+00   0.00000000000000E+00
      0.00000000000000E+00   0.00000000000000E+00  -1.03624708151817E-18   4.94720660127442E-16   4.93684413045924E-16
     -1.26377722327631E-15  -1.31771747599451E+01  -1.31771747599451E+01   0.00000000000000E+00   0.00000000000000E+00
     -2.29585814223124E-17  -1.82568735057882E-15  -1.84864593200113E-15  -2.10231240262218E-15
      2.73543495198903E-01
      8.00000000000000E-01   8.00000000000000E-01   0.00000000000000E+00   0.00000000000000E+00   1.36779783652282E-15
     -1.79547096011486E-17   1.34984312692168E-15   3.35649564609551E-15   0.00000000000000E+00   0.00000000000000E+00
      0.00000000000000E+00   0.00000000000000E+00  -1.03624278241145E-18   1.72903573753892E-15   1.72799949475650E-15
     -1.24442314026585E-15  -1.36771747599451E+01  -1.36771747599451E+01   0.00000000000000E+00   0.00000000000000E+00
     -2.29589166938013E-17  -3.05488370498437E-15  -3.07784262167817E-15  -2.11207250582966E-15
      2.83543495198903E-01
      8.00000000000000E-01   8.00000000000000E-01   0.00000000000000E+00   0.00000000000000E+00   1.36914504710795E-15
      1.40261884237148E-17   1.38317123553167E-15   3.34676486494751E-15   0.00000000000000E+00   0.00000000000000E+00
      0.00000000000000E+00   0.00000000000000E+00  -1.03623845907088E-18   5.56506456555957E-15   5.56402832710050E-15
     -1.22471664999351E-15  -1.41771747599451E+01  -1.41771747599451E+01   0.00000000000000E+00   0.00000000000000E+00
     -2.29592599608164E-17  -6.92424030267134E-15  -6.94719956263215E-15  -2.12204821495401E-15
      2.93543495198903E-01
      8.00000000000000E-01   8.00000000000000E-01   0.00000000000000E+00   0.00000000000000E+00   1.37038548192195E-15
      1.64894893025804E-17   1.38687497122453E-15   3.33691313076502E-15   0.00000000000000E+00   0.00000000000000E+00
      0.00000000000000E+00   0.00000000000000E+00  -1.03623411435160E-18   1.71984626331852E-14   1.71974263990709E-14
     -1.20467470788292E-15  -1.46771747599451E+01  -1.46771747599451E+01   0.00000000000000E+00   0.00000000000000E+00
     -2.29596112197391E-17  -1.85613417590757E-14  -1.85843013702954E-14  -2.13223842288210E-15
      3.03543495198903E-01
      8.00000000000000E-01   8.00000000000000E-01   0.00000000000000E+00   0.00000000000000E+00   1.37148062781330E-15
      3.17399877727199E-17   1.40322061558602E-15   3.32696076723047E-15   0.00000000000000E+00  -9.18447372075268E-17
      0.00000000000000E+00   0.00000000000000E+00  -1.03622975025723E-18   5.15503623634301E-14   5.15493261336798E-14
     -1.18431855348594E-15  -1.51771747599451E+01  -1.51771747599451E+01   0.00000000000000E+00   0.00000000000000E+00
     -2.29599704741144E-17  -5.29295867787918E-14  -5.29525467492660E-14  -2.14264221374452E-15
      3.13543495198903E-01
      8.00000000000000E-01   8.00000000000000E-01   0.00000000000000E+00   0.00000000000000E+00   1.37236487993975E-15
     -3.43374027441130E-17   1.33802747719564E-15   3.31693336868023E-15   0.00000000000000E+00  -1.83689474415054E-16
      0.00000000000000E+00   0.00000000000000E+00  -1.03622536430514E-18   1.50127828970641E-13   1.50126792745277E-13
     -1.16367448951803E-15  -1.56771747599451E+01  -1.56771747599451E+01   0.00000000000000E+00   0.00000000000000E+00
     -2.29603377352592E-17  -1.51441859884737E-13  -1.51464820222473E-13  -2.15325887916221E-15
      3.23543495198903E-01
      8.00000000000000E-01   8.00000000000000E-01   0.00000000000000E+00   0.00000000000000E+00   1.37291528381226E-15
     -1.29268985544499E-17   1.35998838525781E-15   3.30686218666336E-15   0.00000000000000E+00  -4.59223686037634E-16
      0.00000000000000E+00   0.00000000000000E+00  -1.03622093533672E-18   4.24511129860647E-13   4.24510093639712E-13
     -1.14277425832687E-15  -1.61771747599451E+01  -1.61771747599451E+01   0.00000000000000E+00   0.00000000000000E+00
     -2.29607130226876E-17  -4.25847121311946E-13  -4.25870082024968E-13  -2.16408792833648E-15
      3.33543495198903E-01
      8.00000000000000E-01   8.00000000000000E-01   0.00000000000000E+00   0.00000000000000E+00   1.37288110368791E-15
     -1.62007544417994E-17   1.35668034924611E-15   3.29678407944750E-15   0.00000000000000E+00  -1.19398158369785E-15
      0.00000000000000E+00   0.00000000000000E+00  -1.03621637418782E-18   1.16386805627820E-12   1.16386702006183E-12
     -1.12165496944069E-15  -1.66771747599451E+01  -1.66771747599451E+01   0.00000000000000E+00   0.00000000000000E+00
     -2.29610963649464E-17  -1.16520073931471E-12  -1.16522370041107E-12  -2.17512911000682E-15
      3.43543495198903E-01
      8.00000000000000E-01   8.00000000000000E-01   0.00000000000000E+00   0.00000000000000E+00   1.37172738702929E-15
     -1.83124904108247E-17   1.35341489661847E-15   3.28674130370382E-15   0.00000000000000E+00  -3.12272106505591E-15
      0.00000000000000E+00   0.00000000000000E+00  -1.03621137447020E-18   3.08878150023600E-12   3.08878046402462E-12
     -1.10035880584161E-15  -1.71771747599451E+01  -1.71771747599451E+01   0.00000000000000E+00   0.00000000000000E+00
     -2.29614878027081E-17  -3.09011091743345E-12  -3.09013387892125E-12  -2.18638249786221E-15
      3.53543495198903E-01
      8.00000000000000E-01   8.00000000000000E-01   0.00000000000000E+00   0.00000000000000E+00   1.36831466453038E-15
     -2.64087021519131E-17   1.34190596237846E-15   3.27678178907002E-15   0.00000000000000E+00  -7.89864739984730E-15
      0.00000000000000E+00   0.00000000000000E+00  -1.03620502030812E-18   7.92083926939950E-12   7.92083823319449E-12
     -1.07893304249404E-15  -1.76771747599451E+01  -1.76771747599451E+01   0.00000000000000E+00   0.00000000000000E+00
     -2.29618873978956E-17  -7.92215717726950E-12  -7.92218013915690E-12  -2.19784874657598E-15
      3.63543495198903E-01
      8.00000000000000E-01   8.00000000000000E-01   0.00000000000000E+00   0.00000000000000E+00   1.36032619038572E-15
     -3.75442339648406E-18   1.35657176698924E-15   3.26696081765550E-15   0.00000000000000E+00  -1.95629290252032E-14
      0.00000000000000E+00   0.00000000000000E+00  -1.03619489371706E-18   1.95898067149274E-11   1.95898056787325E-11
     -1.05743110725236E-15  -1.81771747599451E+01  -1.81771747599451E+01   0.00000000000000E+00   0.00000000000000E+00
     -2.29622952556920E-17  -1.95911392882041E-11  -1.95911622504994E-11  -2.20952971040313E-15
      3.73543495198903E-01
      8.00000000000000E-01   8.00000000000000E-01   0.00000000000000E+00   0.00000000000000E+00   1.34349189513740E-15
      3.21637863038299E-18   1.34670827376778E-15   3.25734514749212E-15   0.00000000000000E+00  -4.66571265014236E-14
      0.00000000000000E+00   0.00000000000000E+00  -1.03617542864315E-18   4.66268797664175E-11   4.66268787302420E-11
     -1.03591541426652E-15  -1.86771747599451E+01  -1.86771747599451E+01   0.00000000000000E+00   0.00000000000000E+00
     -2.29627115704972E-17  -4.66282024758043E-11  -4.66282254385159E-11  -2.22142973322560E-15
      3.83543495198903E-01
      8.00000000000000E-01   8.00000000000000E-01   0.00000000000000E+00   0.00000000000000E+00   1.31125718931294E-15
      2.40647446542987E-17   1.33532193396724E-15   3.24802048734027E-15   0.00000000000000E+00  -1.06539895160731E-13
      0.00000000000000E+00   0.00000000000000E+00  -1.03613594629267E-18   1.06534101224890E-10   1.06534100188754E-10
     -1.01446244955442E-15  -1.91771747599451E+01  -1.91771747599450E+01   0.00000000000000E+00   0.00000000000000E+00
     -2.29631367113323E-17  -1.06535412547553E-10  -1.06535435510689E-10  -2.23355803778585E-15
      3.93543495198903E-01
      8.00000000000000E-01   8.00000000000000E-01   0.00000000000000E+00   0.00000000000000E+00   1.25664517982990E-15
      2.73040393179990E-17   1.28394921914790E-15   3.23910253480496E-15   0.00000000000000E+00  -2.32918253558288E-13
      0.00000000000000E+00   0.00000000000000E+00  -1.03606098038158E-18   2.32933945403543E-10   2.32933944367482E-10
     -9.93169901119514E-16  -1.96771747599451E+01  -1.96771747599449E+01   0.00000000000000E+00   0.00000000000000E+00
     -2.29635713621101E-17  -2.32935205353127E-10  -2.32935228316698E-10  -2.24593263368545E-15
      4.03543495198903E-01
      8.00000000000000E-01   8.00000000000000E-01   0.00000000000000E+00   0.00000000000000E+00   1.17751144893502E-15
     -1.10506066848512E-17   1.16646084225017E-15   3.23074982322714E-15   0.00000000000000E+00  -4.85491280878986E-13
      0.00000000000000E+00   0.00000000000000E+00  -1.03593699855436E-18   4.85531906851006E-10   4.85531905815069E-10
     -9.72164098284949E-16  -2.01771747599451E+01  -2.01771747599447E+01   0.00000000000000E+00   0.00000000000000E+00
     -2.29640167169441E-17  -4.85533049311893E-10  -4.85533072275910E-10  -2.25858572494219E-15
      4.13543495198903E-01
      8.00000000000000E-01   8.00000000000000E-01   0.00000000000000E+00   0.00000000000000E+00   1.08092827427457E-15
     -3.60207353099675E-17   1.04490753896460E-15   3.22317282672018E-15   0.00000000000000E+00  -9.60695951190730E-13
      0.00000000000000E+00   0.00000000000000E+00  -1.03576246435421E-18   9.60650294510441E-10   9.60650293474678E-10
     -9.51603483908477E-16  -2.06771747599451E+01  -2.06771747599442E+01   0.00000000000000E+00   0.00000000000000E+00
     -2.29644746860709E-17  -9.60651315417740E-10  -9.60651338382215E-10  -2.27156934281170E-15
      4.23543495198903E-01
      8.00000000000000E-01   8.00000000000000E-01   0.00000000000000E+00   0.00000000000000E+00   9.79577368075427E-16
      1.20638361853140E-17   9.91641204260741E-16   3.21662965569644E-15   0.00000000000000E+00  -1.79648305977922E-12
      0.00000000000000E+00   0.00000000000000E+00  -1.03554764811098E-18   1.79652584679197E-09   1.79652584575642E-09
     -9.31671649894077E-16  -2.11771747599451E+01  -2.11771747599433E+01   0.00000000000000E+00   0.00000000000000E+00
     -2.29649479987183E-17  -1.79652681443268E-09  -1.79652683739762E-09  -2.28495800580236E-15
      4.33543495198903E-01
      8.00000000000000E-01   8.00000000000000E-01   0.00000000000000E+00   0.00000000000000E+00   8.83780433194480E-16
     -1.45798477628526E-17   8.69200585431628E-16   3.21139969048777E-15   0.00000000000000E+00  -3.16570440206903E-12
      0.00000000000000E+00   0.00000000000000E+00  -1.03530285652475E-18   3.16572228863038E-09   3.16572228759507E-09
     -9.12555402439246E-16  -2.16771747599451E+01  -2.16771747599420E+01   0.00000000000000E+00   0.00000000000000E+00
     -2.29654400544945E-17  -3.16572313383027E-09  -3.16572315679571E-09  -2.29884428804852E-15
      4.43543495198903E-01
      8.00000000000000E-01   8.00000000000000E-01   0.00000000000000E+00   0.00000000000000E+00   7.98655827997281E-16
     -6.39351277834393E-18   7.92262315218937E-16   3.20773804576899E-15   0.00000000000000E+00  -5.25177391826359E-12
      0.00000000000000E+00   0.00000000000000E+00  -1.03503099801748E-18   5.25179476134872E-09   5.25179476031369E-09
     -8.94412151353720E-16  -2.21771747599451E+01  -2.21771747599399E+01   0.00000000000000E+00   0.00000000000000E+00
     -2.29659544695143E-17  -5.25179552961005E-09  -5.25179555257600E-09  -2.31332589441527E-15
      4.53543495198903E-01
      8.00000000000000E-01   8.00000000000000E-01   0.00000000000000E+00   0.00000000000000E+00   7.25572636308949E-16
     -1.18161834251369E-17   7.13756452883813E-16   3.20582980744052E-15   0.00000000000000E+00  -8.21817524059229E-12
      0.00000000000000E+00   0.00000000000000E+00  -1.03472852603381E-18   8.21821951697091E-09   8.21821951593618E-09
     -8.77341037745569E-16  -2.26771747599451E+01  -2.26771747599369E+01   0.00000000000000E+00   0.00000000000000E+00
     -2.29664944747894E-17  -8.21822020672594E-09  -8.21822022969243E-09  -2.32848876969494E-15
      4.63543495198903E-01
      8.00000000000000E-01   8.00000000000000E-01   0.00000000000000E+00   0.00000000000000E+00   6.63547052754356E-16
      1.62962725265178E-17   6.79843325280874E-16   3.20576617918095E-15   0.00000000000000E+00  -1.21843065274249E-11