DF-ISE text

Info {
  version   = 1.0
  type      = xyplot
  datasets  = [
    "time"
    "Ntop OuterVoltage" "Ntop InnerVoltage" "Ntop QuasiFermiPotential" "Ntop DisplacementCurrent" "Ntop eCurrent"
    "Ntop hCurrent" "Ntop TotalCurrent" "Ntop Charge" "Ptop OuterVoltage" "Ptop InnerVoltage"
    "Ptop QuasiFermiPotential" "Ptop DisplacementCurrent" "Ptop eCurrent" "Ptop hCurrent" "Ptop TotalCurrent"
    "Ptop Charge" "Pbot OuterVoltage" "Pbot InnerVoltage" "Pbot QuasiFermiPotential" "Pbot DisplacementCurrent"
    "Pbot eCurrent" "Pbot hCurrent" "Pbot TotalCurrent" "Pbot Charge" ]
  functions = [
    Time
    OuterVoltage InnerVoltage QuasiFermiPotential DisplacementCurrent eCurrent
    hCurrent TotalCurrent Charge OuterVoltage InnerVoltage
    QuasiFermiPotential DisplacementCurrent eCurrent hCurrent TotalCurrent
    Charge OuterVoltage InnerVoltage QuasiFermiPotential DisplacementCurrent
    eCurrent hCurrent TotalCurrent Charge ]
}

Data {
      1.00000000000000E-03
      8.00000000000000E-01   8.00000000000000E-01   0.00000000000000E+00   0.00000000000000E+00   5.54411267936848E-16
      1.96878581753646E-19   5.54608146518602E-16   3.26723091555692E-15   0.00000000000000E+00   0.00000000000000E+00
      0.00000000000000E+00   0.00000000000000E+00  -1.03635433974182E-18  -6.08497170119013E-17  -6.18860713516432E-17
     -1.34164666900226E-15  -5.00000000000000E-02  -5.00000000000000E-02   0.00000000000000E+00   0.00000000000000E+00
     -2.29526236927171E-17  -4.69769451474241E-16  -4.92722075166958E-16  -1.92558424655466E-15
      2.91111111111111E-03
      8.00000000000000E-01   8.00000000000000E-01   0.00000000000000E+00   0.00000000000000E+00   5.86027646419518E-16
      7.70885420000553E-19   5.86798531839519E-16   3.26811285577340E-15   0.00000000000000E+00   0.00000000000000E+00
      0.00000000000000E+00   0.00000000000000E+00  -1.03635433923958E-18  -6.07245334091220E-17  -6.17608877483616E-17
     -1.34164522226099E-15  -1.45555555555556E-01  -1.45555555555555E-01   0.00000000000000E+00   0.00000000000000E+00
     -2.29526526253429E-17  -5.02084991465814E-16  -5.25037644091157E-16  -1.92646763351242E-15
      6.56345679012346E-03
      8.00000000000000E-01   8.00000000000000E-01   0.00000000000000E+00   0.00000000000000E+00   6.42498634709834E-16
      4.71606050717152E-19   6.42970240760551E-16   3.26979460946792E-15   0.00000000000000E+00   0.00000000000000E+00
      0.00000000000000E+00   0.00000000000000E+00  -1.03635433768249E-18  -6.05161026469411E-17  -6.15524569846236E-17
     -1.34164073755560E-15  -3.28172839506173E-01  -3.28172839506173E-01   0.00000000000000E+00   0.00000000000000E+00
     -2.29527079307645E-17  -5.58465075845163E-16  -5.81417783775927E-16  -1.92815387191232E-15
      1.35434951989026E-02
      8.00000000000000E-01   8.00000000000000E-01   0.00000000000000E+00   0.00000000000000E+00   7.39645201694064E-16
     -2.34075267424326E-18   7.37304449019821E-16   3.27298962088447E-15   0.00000000000000E+00   0.00000000000000E+00
      0.00000000000000E+00   0.00000000000000E+00  -1.03635433053986E-18  -6.01734356762150E-17  -6.12097900067548E-17
     -1.34162016551628E-15  -6.77174759945130E-01  -6.77174759945130E-01   0.00000000000000E+00   0.00000000000000E+00
     -2.29528136330794E-17  -6.53141845379987E-16  -6.76094659013066E-16  -1.93136945536820E-15
      2.35434951989026E-02
      8.00000000000000E-01   8.00000000000000E-01   0.00000000000000E+00   0.00000000000000E+00   8.61380324010196E-16
     -8.10969906465408E-19   8.60569354103731E-16   3.27748144461222E-15   0.00000000000000E+00   0.00000000000000E+00
      0.00000000000000E+00   0.00000000000000E+00  -1.03635429497920E-18  -5.98236567959851E-17  -6.08600110909643E-17
     -1.34151776132872E-15  -1.17717475994513E+00  -1.17717475994513E+00   0.00000000000000E+00   0.00000000000000E+00
     -2.29529650818149E-17  -7.76756377930952E-16  -7.99709343012767E-16  -1.93596368328350E-15
      3.35434951989026E-02
      8.00000000000000E-01   8.00000000000000E-01   0.00000000000000E+00   0.00000000000000E+00   9.65894535841808E-16
     -1.04924763848578E-18   9.64845288203322E-16   3.28173307646989E-15   0.00000000000000E+00   0.00000000000000E+00
      0.00000000000000E+00   0.00000000000000E+00  -1.03635417398069E-18  -5.96440740546075E-17  -6.06804282285882E-17
     -1.34116934145585E-15  -1.67717475994513E+00  -1.67717475994513E+00   0.00000000000000E+00   0.00000000000000E+00
     -2.29531171219251E-17  -8.81211742852808E-16  -9.04164859974733E-16  -1.94056373501404E-15
      4.35434951989026E-02
      8.00000000000000E-01   8.00000000000000E-01   0.00000000000000E+00   0.00000000000000E+00   1.05062402026139E-15
      3.61033845984149E-18   1.05423435872123E-15   3.28543793634445E-15   0.00000000000000E+00   0.00000000000000E+00
      0.00000000000000E+00   0.00000000000000E+00  -1.03635384211779E-18  -5.96812979825103E-17  -6.07176518246280E-17
     -1.34021263644923E-15  -2.17717475994513E+00  -2.17717475994513E+00   0.00000000000000E+00   0.00000000000000E+00
     -2.29532715309556E-17  -9.70563435365653E-16  -9.93516706896608E-16  -1.94522529989523E-15
      5.35434951989026E-02
      8.00000000000000E-01   8.00000000000000E-01   0.00000000000000E+00   0.00000000000000E+00   1.11857768308948E-15
     -1.94293140658033E-18   1.11663475168290E-15   3.28807770186961E-15   0.00000000000000E+00   0.00000000000000E+00
      0.00000000000000E+00   0.00000000000000E+00  -1.03635310237838E-18  -6.00320630270059E-17  -6.10684161293842E-17
     -1.33807115735416E-15  -2.67717475994513E+00  -2.67717475994513E+00   0.00000000000000E+00   0.00000000000000E+00
     -2.29534302072114E-17  -1.03261290534630E-15  -1.05556633555351E-15  -1.95000654451545E-15
      6.35434951989026E-02
      8.00000000000000E-01   8.00000000000000E-01   0.00000000000000E+00   0.00000000000000E+00   1.17257415651053E-15
      9.75867461893756E-19   1.17355002397242E-15   3.28908428135972E-15   0.00000000000000E+00   0.00000000000000E+00
      0.00000000000000E+00   0.00000000000000E+00  -1.03635175720323E-18  -6.08576872593245E-17  -6.18940390165277E-17
     -1.33413175818654E-15  -3.17717475994513E+00  -3.17717475994513E+00   0.00000000000000E+00   0.00000000000000E+00
     -2.29535946376649E-17  -1.08870239031823E-15  -1.11165598495590E-15  -1.95495252317317E-15
      7.35434951989026E-02
      8.00000000000000E-01   8.00000000000000E-01   0.00000000000000E+00   0.00000000000000E+00   1.21505260917932E-15
      3.50065555626860E-18   1.21855326473559E-15   3.28819933700006E-15   0.00000000000000E+00   0.00000000000000E+00
      0.00000000000000E+00   0.00000000000000E+00  -1.03634974287999E-18  -6.23572922250518E-17  -6.33936419679318E-17
     -1.32810429616914E-15  -3.67717475994513E+00  -3.67717475994513E+00   0.00000000000000E+00   0.00000000000000E+00
     -2.29537658833933E-17  -1.13220585688426E-15  -1.15515962276765E-15  -1.96009504083093E-15
      8.35434951989026E-02
      8.00000000000000E-01   8.00000000000000E-01   0.00000000000000E+00   0.00000000000000E+00   1.24827159432412E-15
      6.01939258823926E-19   1.24887353358294E-15   3.28566390204987E-15   0.00000000000000E+00   0.00000000000000E+00
      0.00000000000000E+00   0.00000000000000E+00  -1.03634717995325E-18  -6.46756083903959E-17  -6.57119555703492E-17
     -1.32020717224940E-15  -4.17717475994513E+00  -4.17717475994513E+00   0.00000000000000E+00   0.00000000000000E+00
     -2.29539447093069E-17  -1.16020763330328E-15  -1.18316157801259E-15  -1.96545672980046E-15
      9.35434951989026E-02
      8.00000000000000E-01   8.00000000000000E-01   0.00000000000000E+00   0.00000000000000E+00   1.27431772591328E-15
      3.68881028551154E-18   1.27800653619879E-15   3.28194240832195E-15   0.00000000000000E+00   0.00000000000000E+00
      0.00000000000000E+00   0.00000000000000E+00  -1.03634424988678E-18  -6.76461900558272E-17  -6.86825343057140E-17
     -1.31088939136594E-15  -4.67717475994513E+00  -4.67717475994513E+00   0.00000000000000E+00   0.00000000000000E+00
     -2.29541316462579E-17  -1.18636987024682E-15  -1.20932400189308E-15  -1.97105301695601E-15
      1.03543495198903E-01
      8.00000000000000E-01   8.00000000000000E-01   0.00000000000000E+00   0.00000000000000E+00   1.29413544887168E-15
      7.80422992656399E-18   1.30193967879824E-15   3.27740975420100E-15   0.00000000000000E+00   0.00000000000000E+00
      0.00000000000000E+00   0.00000000000000E+00  -1.03634108404187E-18  -7.04838725141611E-17  -7.15202135982030E-17
     -1.30051758339468E-15  -5.17717475994513E+00  -5.17717475994513E+00   0.00000000000000E+00   0.00000000000000E+00
     -2.29543269901889E-17  -1.20746513820985E-15  -1.23041946520004E-15  -1.97689217080632E-15
      1.13543495198903E-01
      8.00000000000000E-01   8.00000000000000E-01   0.00000000000000E+00   0.00000000000000E+00   1.30844966779872E-15
     -1.08998138597057E-18   1.30735968641275E-15   3.27229690083742E-15   0.00000000000000E+00   0.00000000000000E+00
      0.00000000000000E+00   0.00000000000000E+00  -1.03633775609758E-18  -7.23642221093096E-17  -7.34005598654072E-17
     -1.28931954274699E-15  -5.67717475994513E+00  -5.67717475994513E+00   0.00000000000000E+00   0.00000000000000E+00
     -2.29545308690134E-17  -1.21100459567833E-15  -1.23395912654734E-15  -1.98297735809043E-15
      1.23543495198903E-01
      8.00000000000000E-01   8.00000000000000E-01   0.00000000000000E+00   0.00000000000000E+00   1.31873146053296E-15
      8.89374531722604E-18   1.32762520585018E-15   3.26673994436794E-15   0.00000000000000E+00   0.00000000000000E+00
      0.00000000000000E+00   0.00000000000000E+00  -1.03633430605413E-18  -7.32445879227453E-17  -7.42809222287995E-17
     -1.27743101287048E-15  -6.17717475994513E+00  -6.17717475994513E+00   0.00000000000000E+00   0.00000000000000E+00
     -2.29547433180282E-17  -1.23038954030336E-15  -1.25334428362139E-15  -1.98930893149748E-15
      1.33543495198903E-01
      8.00000000000000E-01   8.00000000000000E-01   0.00000000000000E+00   0.00000000000000E+00   1.32648677706832E-15
      1.08709219917450E-18   1.32757386926749E-15   3.26082282534960E-15   0.00000000000000E+00   0.00000000000000E+00
      0.00000000000000E+00   0.00000000000000E+00  -1.03633075714474E-18  -7.34833666940093E-17  -7.45196974511540E-17
     -1.26493699250955E-15  -6.67717475994513E+00  -6.67717475994513E+00   0.00000000000000E+00   0.00000000000000E+00
     -2.29549643263236E-17  -1.23009920749001E-15  -1.25305417181634E-15  -1.99588583284005E-15
      1.43543495198903E-01
      8.00000000000000E-01   8.00000000000000E-01   0.00000000000000E+00   0.00000000000000E+00   1.33266451322472E-15
     -1.70951888421538E-18   1.33095499434051E-15   3.25460092185226E-15   0.00000000000000E+00   0.00000000000000E+00
      0.00000000000000E+00   0.00000000000000E+00  -1.03632712420419E-18  -7.33361288022713E-17  -7.43724559264754E-17
     -1.25189460396300E-15  -7.17717475994513E+00  -7.17717475994513E+00   0.00000000000000E+00   0.00000000000000E+00
     -2.29551938607909E-17  -1.23362734455324E-15  -1.25658253841403E-15  -2.00270631788927E-15
      1.53543495198903E-01
      8.00000000000000E-01   8.00000000000000E-01   0.00000000000000E+00   0.00000000000000E+00   1.33776339217444E-15
     -6.74090448206852E-18   1.33102248769237E-15   3.24811312193025E-15   0.00000000000000E+00   0.00000000000000E+00
      0.00000000000000E+00   0.00000000000000E+00  -1.03632341757177E-18  -7.29620879015927E-17  -7.39984113191645E-17
     -1.23834479810796E-15  -7.67717475994513E+00  -7.67717475994513E+00   0.00000000000000E+00   0.00000000000000E+00
     -2.29554318783032E-17  -1.23406864449490E-15  -1.25702407637321E-15  -2.00976832382229E-15
      1.63543495198903E-01
      8.00000000000000E-01   8.00000000000000E-01   0.00000000000000E+00   0.00000000000000E+00   1.34204679342326E-15
     -3.28301693610943E-18   1.33876377648715E-15   3.24138818514613E-15   0.00000000000000E+00   0.00000000000000E+00
      0.00000000000000E+00   0.00000000000000E+00  -1.03631964498253E-18  -7.24195317530410E-17  -7.34558513980235E-17
     -1.22431852360525E-15  -8.17717475994513E+00  -8.17717475994513E+00   0.00000000000000E+00   0.00000000000000E+00
     -2.29556783320967E-17  -1.24235224675703E-15  -1.26530792508913E-15  -2.01706966154088E-15
      1.73543495198903E-01
      8.00000000000000E-01   8.00000000000000E-01   0.00000000000000E+00   0.00000000000000E+00   1.34567866089216E-15
     -1.24047079157873E-18   1.34443819010058E-15   3.23444831916897E-15   0.00000000000000E+00   0.00000000000000E+00
      0.00000000000000E+00   0.00000000000000E+00  -1.03631581255440E-18  -7.17468661023556E-17  -7.27831819149100E-17
     -1.20984019868575E-15  -8.67717475994513E+00  -8.67717475994513E+00   0.00000000000000E+00   0.00000000000000E+00
     -2.29559331752423E-17  -1.24869907501043E-15  -1.27165500818567E-15  -2.02460812048321E-15
      1.83543495198903E-01
      8.00000000000000E-01   8.00000000000000E-01   0.00000000000000E+00   0.00000000000000E+00   1.34878838872601E-15
     -5.53128530743849E-18   1.34325710341857E-15   3.22731133282902E-15   0.00000000000000E+00   0.00000000000000E+00
      0.00000000000000E+00   0.00000000000000E+00  -1.03631192534606E-18  -7.09528839199655E-17  -7.19891958453116E-17
     -1.19492980604957E-15  -9.17717475994513E+00  -9.17717475994513E+00   0.00000000000000E+00   0.00000000000000E+00
     -2.29561963625906E-17  -1.24831171121067E-15  -1.27126790757326E-15  -2.03238152677945E-15
      1.93543495198903E-01
      8.00000000000000E-01   8.00000000000000E-01   0.00000000000000E+00   0.00000000000000E+00   1.35148928865725E-15
      1.72277316972212E-17   1.36871702035448E-15   3.21999200410273E-15   0.00000000000000E+00   0.00000000000000E+00
      0.00000000000000E+00   0.00000000000000E+00  -1.03630798769275E-18  -7.00351030485717E-17  -7.10714110362645E-17
     -1.17960422994987E-15  -9.67717475994513E+00  -9.67717475994513E+00   0.00000000000000E+00   0.00000000000000E+00
     -2.29564678517954E-17  -1.27468914146642E-15  -1.29764560931821E-15  -2.04038777415287E-15
      2.03543495198903E-01
      8.00000000000000E-01   8.00000000000000E-01   0.00000000000000E+00   0.00000000000000E+00   1.35386712237414E-15
     -1.07479134121748E-18   1.35279233103292E-15   3.21250298233127E-15   0.00000000000000E+00   0.00000000000000E+00
      0.00000000000000E+00   0.00000000000000E+00  -1.03630400341807E-18  -6.89017968126949E-17  -6.99381008161130E-17
     -1.16387814456653E-15  -1.01771747599451E+01  -1.01771747599451E+01   0.00000000000000E+00   0.00000000000000E+00
     -2.29567476037756E-17  -1.25989748261303E-15  -1.28285423021681E-15  -2.04862483776474E-15
      2.13543495198903E-01
      8.00000000000000E-01   8.00000000000000E-01   0.00000000000000E+00   0.00000000000000E+00   1.35598645347254E-15
      3.97067654779486E-19   1.35638352112732E-15   3.20485540340045E-15   0.00000000000000E+00   0.00000000000000E+00
      0.00000000000000E+00   0.00000000000000E+00  -1.03629997597209E-18  -6.72323474723080E-17  -6.82686474482801E-17
     -1.14776462594973E-15  -1.06771747599451E+01  -1.06771747599451E+01   0.00000000000000E+00   0.00000000000000E+00
     -2.29570355828321E-17  -1.26515783809620E-15  -1.28811487367904E-15  -2.05709077745072E-15
      2.23543495198903E-01
      8.00000000000000E-01   8.00000000000000E-01   0.00000000000000E+00   0.00000000000000E+00   1.35791465453883E-15
      1.11626750793888E-17   1.36907732961822E-15   3.19705932951775E-15   0.00000000000000E+00   0.00000000000000E+00
      0.00000000000000E+00   0.00000000000000E+00  -1.03629590852518E-18  -6.39402994759408E-17  -6.49765953844660E-17
     -1.13127559450904E-15  -1.11771747599451E+01  -1.11771747599451E+01   0.00000000000000E+00   0.00000000000000E+00
     -2.29573317565432E-17  -1.28114340247721E-15  -1.30410073423375E-15  -2.06578373500871E-15
      2.33543495198903E-01
      8.00000000000000E-01   8.00000000000000E-01   0.00000000000000E+00   0.00000000000000E+00   1.35970668472932E-15
     -6.48204563476871E-18   1.35322463909455E-15   3.18912408700610E-15   0.00000000000000E+00   0.00000000000000E+00
      0.00000000000000E+00   0.00000000000000E+00  -1.03629180403503E-18  -5.53804946822396E-17  -5.64167864862747E-17
     -1.11442215808168E-15  -1.16771747599451E+01  -1.16771747599451E+01   0.00000000000000E+00   0.00000000000000E+00
     -2.29576360955981E-17  -1.27385021651268E-15  -1.29680785260827E-15  -2.07470192892443E-15
      2.43543495198903E-01
      8.00000000000000E-01   8.00000000000000E-01   0.00000000000000E+00   0.00000000000000E+00   1.36139649034986E-15
      6.98217534820252E-18   1.36837866569806E-15   3.18105855034929E-15   0.00000000000000E+00   0.00000000000000E+00
      0.00000000000000E+00   0.00000000000000E+00  -1.03628766529761E-18  -2.95589282184996E-17  -3.05952158837972E-17
     -1.09721490155277E-15  -1.21771747599451E+01  -1.21771747599451E+01   0.00000000000000E+00   0.00000000000000E+00
     -2.29579485736070E-17  -1.31482550124065E-15  -1.33778344981426E-15  -2.08384364879653E-15
      2.53543495198903E-01
      8.00000000000000E-01   8.00000000000000E-01   0.00000000000000E+00   0.00000000000000E+00   1.36300594982990E-15
     -2.89231178690296E-18   1.36011363804299E-15   3.17287140391804E-15   0.00000000000000E+00   0.00000000000000E+00
      0.00000000000000E+00   0.00000000000000E+00  -1.03628349498859E-18   5.22877048928604E-17   5.12514213978718E-17
     -1.07966415311399E-15  -1.26771747599451E+01  -1.26771747599451E+01   0.00000000000000E+00   0.00000000000000E+00
     -2.29582691669443E-17  -1.38840679027392E-15  -1.41136505944087E-15  -2.09320725080405E-15
      2.63543495198903E-01
      8.00000000000000E-01   8.00000000000000E-01   0.00000000000000E+00   0.00000000000000E+00   1.36454841860420E-15
     -2.82672431277882E-18   1.36172169429142E-15   3.16457140243213E-15   0.00000000000000E+00   0.00000000000000E+00
      0.00000000000000E+00   0.00000000000000E+00  -1.03627929569825E-18   3.12614372277764E-16   3.11578092982066E-16
     -1.06178024752807E-15  -1.31771747599451E+01  -1.31771747599451E+01   0.00000000000000E+00   0.00000000000000E+00
     -2.29585978546626E-17  -1.65034118941882E-15  -1.67329978727348E-15  -2.10279115490406E-15
      2.73543495198903E-01
      8.00000000000000E-01   8.00000000000000E-01   0.00000000000000E+00   0.00000000000000E+00   1.36602719438076E-15
     -1.33858195671182E-17   1.35264137481364E-15   3.15616764542781E-15   0.00000000000000E+00   0.00000000000000E+00
      0.00000000000000E+00   0.00000000000000E+00  -1.03627506995974E-18   1.12961516703278E-15   1.12857889196282E-15
     -1.04357380139832E-15  -1.36771747599451E+01  -1.36771747599451E+01   0.00000000000000E+00   0.00000000000000E+00
     -2.29589346184635E-17  -2.45826133215800E-15  -2.48122026677646E-15  -2.11259384402948E-15
      2.83543495198903E-01
      8.00000000000000E-01   8.00000000000000E-01   0.00000000000000E+00   0.00000000000000E+00   1.36743478764318E-15
      1.14183981343720E-17   1.37885318577755E-15   3.14766987811279E-15   0.00000000000000E+00   0.00000000000000E+00
      0.00000000000000E+00   0.00000000000000E+00  -1.03627082025916E-18   3.64290635487679E-15   3.64187008405653E-15
     -1.02505601276812E-15  -1.41771747599451E+01  -1.41771747599451E+01   0.00000000000000E+00   0.00000000000000E+00
     -2.29592794427497E-17  -4.99776399039133E-15  -5.02072326983408E-15  -2.12261386534468E-15
      2.93543495198903E-01
      8.00000000000000E-01   8.00000000000000E-01   0.00000000000000E+00   0.00000000000000E+00   1.36875257373504E-15
     -3.13487041505094E-18   1.36561770331999E-15   3.13908882997441E-15   0.00000000000000E+00   0.00000000000000E+00
      0.00000000000000E+00   0.00000000000000E+00  -1.03626654897111E-18   1.11978092173071E-14   1.11967729507582E-14
     -1.00623899635942E-15  -1.46771747599451E+01  -1.46771747599451E+01   0.00000000000000E+00   0.00000000000000E+00
     -2.29596323147415E-17  -1.25394310217634E-14  -1.25623906540781E-14  -2.13284983361499E-15
      3.03543495198903E-01
      8.00000000000000E-01   8.00000000000000E-01   0.00000000000000E+00   0.00000000000000E+00   1.36994970053972E-15
     -7.24366668501345E-19   1.36922533387122E-15   3.13043660343126E-15   0.00000000000000E+00   0.00000000000000E+00
      0.00000000000000E+00   0.00000000000000E+00  -1.03626225797348E-18   3.33444409125677E-14   3.33434046503097E-14
     -9.87136166287889E-16  -1.51771747599451E+01  -1.51771747599451E+01   0.00000000000000E+00   0.00000000000000E+00
     -2.29599932247008E-17  -3.46896699909561E-14  -3.47126299841809E-14  -2.14330043714338E-15
      3.13543495198903E-01
      8.00000000000000E-01   8.00000000000000E-01   0.00000000000000E+00   0.00000000000000E+00   1.37097705901575E-15
      3.19710046092134E-17   1.40294806362497E-15   3.12172712924011E-15   0.00000000000000E+00  -9.18447372075268E-17
      0.00000000000000E+00   0.00000000000000E+00  -1.03625794693811E-18   9.65491780835086E-14   9.65481418255616E-14
     -9.67762681231535E-16  -1.56771747599451E+01  -1.56771747599451E+01   0.00000000000000E+00   0.00000000000000E+00
     -2.29603621662867E-17  -9.79281295270205E-14  -9.79510898891868E-14  -2.15396444800858E-15
      3.23543495198903E-01
      8.00000000000000E-01   8.00000000000000E-01   0.00000000000000E+00   0.00000000000000E+00   1.37174815122890E-15
      1.37866359247483E-17   1.38553478715365E-15   3.11297671713571E-15   0.00000000000000E+00  -2.75534211622580E-16
      0.00000000000000E+00   0.00000000000000E+00  -1.03625360655008E-18   2.71880256727270E-13   2.71879220473664E-13
     -9.48135975473215E-16  -1.61771747599451E+01  -1.61771747599451E+01   0.00000000000000E+00   0.00000000000000E+00
     -2.29607391372653E-17  -2.73241794521681E-13  -2.73264755260818E-13  -2.16484074166249E-15
      3.33543495198903E-01
      8.00000000000000E-01   8.00000000000000E-01   0.00000000000000E+00   0.00000000000000E+00   1.37209323261219E-15
     -4.16422407689652E-17   1.33045099184323E-15   3.10420475665776E-15   0.00000000000000E+00  -7.34757897660214E-16
      0.00000000000000E+00   0.00000000000000E+00  -1.03624919413901E-18   7.43867243311372E-13   7.43866207062177E-13
     -9.28276417968745E-16  -1.66771747599451E+01  -1.66771747599451E+01   0.00000000000000E+00   0.00000000000000E+00
     -2.29611241409881E-17  -7.45173696929878E-13  -7.45196658054019E-13  -2.17592833868902E-15
      3.43543495198903E-01
      8.00000000000000E-01   8.00000000000000E-01   0.00000000000000E+00   0.00000000000000E+00   1.37165596875741E-15
     -9.51483163945378E-18   1.36214113711796E-15   3.09543467667831E-15   0.00000000000000E+00  -2.02058421856559E-15
      0.00000000000000E+00   0.00000000000000E+00  -1.03624455608274E-18   1.97476909492582E-12   1.97476805868126E-12
     -9.08208178402919E-16  -1.71771747599451E+01  -1.71771747599451E+01   0.00000000000000E+00   0.00000000000000E+00
     -2.29615171897175E-17  -1.97610723830117E-12  -1.97613019981836E-12  -2.18722649827539E-15
      3.53543495198903E-01
      8.00000000000000E-01   8.00000000000000E-01   0.00000000000000E+00   0.00000000000000E+00   1.36967443709935E-15
     -3.62103888436947E-18   1.36605339821499E-15   3.08669537024292E-15   0.00000000000000E+00  -5.05146054641397E-15
      0.00000000000000E+00   0.00000000000000E+00  -1.03623921258868E-18   5.07889297813483E-12   5.07889194189562E-12
     -8.87960443790817E-16  -1.76771747599451E+01  -1.76771747599451E+01   0.00000000000000E+00   0.00000000000000E+00
     -2.29619183120111E-17  -5.08023503337551E-12  -5.08025799529382E-12  -2.19873492645210E-15
      3.63543495198903E-01
      8.00000000000000E-01   8.00000000000000E-01   0.00000000000000E+00   0.00000000000000E+00   1.36456382243627E-15
      3.96967815403282E-17   1.40426060397660E-15   3.07802345107362E-15   0.00000000000000E+00  -1.26745737346387E-14
      0.00000000000000E+00   0.00000000000000E+00  -1.03623183593540E-18   1.26328995327997E-11   1.26328984965678E-11
     -8.67569227733003E-16  -1.81771747599451E+01  -1.81771747599451E+01   0.00000000000000E+00   0.00000000000000E+00
     -2.29623275686408E-17  -1.26342797948441E-11  -1.26343027571716E-11  -2.21045422334061E-15
      3.73543495198903E-01
      8.00000000000000E-01   8.00000000000000E-01   0.00000000000000E+00   0.00000000000000E+00   1.35325606190630E-15
     -1.75978022844160E-17   1.33565825962188E-15   3.06946692500826E-15   0.00000000000000E+00  -3.03087632784838E-14
      0.00000000000000E+00   0.00000000000000E+00  -1.03621917843899E-18   3.03290407766081E-11   3.03290397403889E-11
     -8.47080132870244E-16  -1.86771747599451E+01  -1.86771747599451E+01   0.00000000000000E+00   0.00000000000000E+00
     -2.29627450849765E-17  -3.03303524359032E-11  -3.03303753986482E-11  -2.22238679213801E-15
      3.83543495198903E-01
      8.00000000000000E-01   8.00000000000000E-01   0.00000000000000E+00   0.00000000000000E+00   1.33055801877090E-15
     -2.54243181299658E-17   1.30513370064094E-15   3.06109105161353E-15   0.00000000000000E+00  -7.00775344893429E-14
      0.00000000000000E+00   0.00000000000000E+00  -1.03619441815165E-18   7.01153533986188E-11   7.01153523624244E-11
     -8.26552491998555E-16  -1.91771747599451E+01  -1.91771747599451E+01   0.00000000000000E+00   0.00000000000000E+00
     -2.29631711125102E-17  -7.01166345329552E-11  -7.01166574961263E-11  -2.23453855961498E-15
      3.93543495198903E-01
      8.00000000000000E-01   8.00000000000000E-01   0.00000000000000E+00   0.00000000000000E+00   1.28964715788681E-15
     -5.24236226123386E-18   1.28440479562558E-15   3.05298706878029E-15   0.00000000000000E+00  -1.55676829566758E-13
      0.00000000000000E+00   0.00000000000000E+00  -1.03614605663159E-18   1.55636300425776E-10   1.55636299389630E-10
     -8.06065124244304E-16  -1.96771747599451E+01  -1.96771747599450E+01   0.00000000000000E+00   0.00000000000000E+00
     -2.29636061353361E-17  -1.55637560830816E-10  -1.55637583794422E-10  -2.24692194453599E-15
      4.03543495198903E-01
      8.00000000000000E-01   8.00000000000000E-01   0.00000000000000E+00   0.00000000000000E+00   1.22549903952748E-15
     -1.15782357838966E-17   1.21392080374358E-15   3.04528347465016E-15   0.00000000000000E+00  -3.30549209209889E-13
      0.00000000000000E+00   0.00000000000000E+00  -1.03606057920176E-18   3.30525585572953E-10   3.30525584536892E-10
     -7.85723118235791E-16  -2.01771747599451E+01  -2.01771747599448E+01   0.00000000000000E+00   0.00000000000000E+00
     -2.29640510323633E-17  -3.30526775493641E-10  -3.30526798457692E-10  -2.25956035641438E-15
      4.13543495198903E-01
      8.00000000000000E-01   8.00000000000000E-01   0.00000000000000E+00   0.00000000000000E+00   1.14031274226842E-15
     -2.96516978571597E-17   1.11066104441126E-15   3.03815694660459E-15   0.00000000000000E+00  -6.68721531608002E-13
      0.00000000000000E+00   0.00000000000000E+00  -1.03593051233969E-18   6.68753380040644E-10   6.68753379004713E-10
     -7.65663192649696E-16  -2.06771747599451E+01  -2.06771747599445E+01   0.00000000000000E+00   0.00000000000000E+00
     -2.29645072793652E-17  -6.68754466701253E-10  -6.68754489665760E-10  -2.27249375395489E-15
      4.23543495198903E-01
      8.00000000000000E-01   8.00000000000000E-01   0.00000000000000E+00   0.00000000000000E+00   1.04436405658961E-15
     -9.24794176963253E-18   1.03511611481997E-15   3.03183584661732E-15   0.00000000000000E+00  -1.28334651300077E-12
      0.00000000000000E+00   0.00000000000000E+00  -1.03576000217320E-18   1.28333257866857E-09   1.28333257763281E-09
     -7.46052637830239E-16  -2.11771747599451E+01  -2.11771747599439E+01   0.00000000000000E+00   0.00000000000000E+00
     -2.29649771183189E-17  -1.28333358978393E-09  -1.28333361274891E-09  -2.28578320878708E-15
      4.33543495198903E-01
      8.00000000000000E-01   8.00000000000000E-01   0.00000000000000E+00   0.00000000000000E+00   9.49280590025997E-16
     -1.99946027993033E-17   9.29285987226694E-16   3.02658672931029E-15   0.00000000000000E+00  -2.32651903820386E-12
      0.00000000000000E+00   0.00000000000000E+00  -1.03555864922744E-18   2.32651457754284E-09   2.32651457650728E-09
     -7.27075996206968E-16  -2.16771747599451E+01  -2.16771747599428E+01   0.00000000000000E+00   0.00000000000000E+00
     -2.29654635600905E-17  -2.32651548282787E-09  -2.32651550579334E-09  -2.29951073310332E-15
      4.43543495198903E-01
      8.00000000000000E-01   8.00000000000000E-01   0.00000000000000E+00   0.00000000000000E+00   8.62104278339868E-16
     -2.84442884814201E-17   8.33659989858448E-16   3.02267943484305E-15   0.00000000000000E+00  -3.97531576055338E-12
      0.00000000000000E+00   0.00000000000000E+00  -1.03533167728504E-18   3.97531097527565E-09   3.97531097424032E-09
     -7.08908323691232E-16  -2.21771747599451E+01  -2.21771747599412E+01   0.00000000000000E+00   0.00000000000000E+00
     -2.29659701014601E-17  -3.97531178493441E-09  -3.97531180790039E-09  -2.31377111115182E-15
      4.53543495198903E-01
      8.00000000000000E-01   8.00000000000000E-01   0.00000000000000E+00   0.00000000000000E+00   7.85521759837559E-16
     -4.58759273828384E-18   7.80934167099275E-16   3.02034064215484E-15   0.00000000000000E+00  -6.40405799126922E-12
      0.00000000000000E+00   0.00000000000000E+00  -1.03507788537237E-18   6.40408124320326E-09   6.40408124216819E-09
     -6.91683791250974E-16  -2.26771747599451E+01  -2.26771747599387E+01   0.00000000000000E+00   0.00000000000000E+00
     -2.29665001921709E-17  -6.40408200013589E-09  -6.40408202310239E-09  -2.32865685090385E-15
      4.63543495198903E-01
      8.00000000000000E-01   8.00000000000000E-01   0.00000000000000E+00   0.00000000000000E+00   7.19828861607831E-16
      2.79007099052054E-17   7.47729571513037E-16   3.01971727609155E-15   0.00000000000000E+00  -9.75593167565791E-12