DF-ISE text

Info {
  version   = 1.0
  type      = xyplot
  datasets  = [
    "time"
    "Ntop OuterVoltage" "Ntop InnerVoltage" "Ntop QuasiFermiPotential" "Ntop DisplacementCurrent" "Ntop eCurrent"
    "Ntop hCurrent" "Ntop TotalCurrent" "Ntop Charge" "Ptop OuterVoltage" "Ptop InnerVoltage"
    "Ptop QuasiFermiPotential" "Ptop DisplacementCurrent" "Ptop eCurrent" "Ptop hCurrent" "Ptop TotalCurrent"
    "Ptop Charge" "Pbot OuterVoltage" "Pbot InnerVoltage" "Pbot QuasiFermiPotential" "Pbot DisplacementCurrent"
    "Pbot eCurrent" "Pbot hCurrent" "Pbot TotalCurrent" "Pbot Charge" ]
  functions = [
    Time
    OuterVoltage InnerVoltage QuasiFermiPotential DisplacementCurrent eCurrent
    hCurrent TotalCurrent Charge OuterVoltage InnerVoltage
    QuasiFermiPotential DisplacementCurrent eCurrent hCurrent TotalCurrent
    Charge OuterVoltage InnerVoltage QuasiFermiPotential DisplacementCurrent
    eCurrent hCurrent TotalCurrent Charge ]
}

Data {
      1.00000000000000E-03
      8.00000000000000E-01   8.00000000000000E-01   0.00000000000000E+00   0.00000000000000E+00   5.57623063750215E-16
     -4.08880669803200E-19   5.57214183080412E-16   3.51564291513744E-15   0.00000000000000E+00   0.00000000000000E+00
      0.00000000000000E+00   0.00000000000000E+00  -1.03632246049867E-18  -6.41872975227179E-17  -6.52236199832166E-17
     -1.59005871586684E-15  -5.00000000000000E-02  -5.00000000000000E-02   0.00000000000000E+00   0.00000000000000E+00
     -2.29526236911694E-17  -4.69037939406026E-16  -4.91990563097196E-16  -1.92558419927059E-15
      2.91111111111111E-03
      8.00000000000000E-01   8.00000000000000E-01   0.00000000000000E+00   0.00000000000000E+00   5.89242061128507E-16
      1.17026590517136E-18   5.90412327033678E-16   3.51652442044209E-15   0.00000000000000E+00   0.00000000000000E+00
      0.00000000000000E+00   0.00000000000000E+00  -1.03632245991399E-18  -6.40586635815105E-17  -6.50949860414245E-17
     -1.59005685560460E-15  -1.45555555555556E-01  -1.45555555555555E-01   0.00000000000000E+00   0.00000000000000E+00
     -2.29526526230928E-17  -5.02364688369162E-16  -5.25317340992254E-16  -1.92646756483749E-15
      6.56345679012346E-03
      8.00000000000000E-01   8.00000000000000E-01   0.00000000000000E+00   0.00000000000000E+00   6.45721127143789E-16
      9.88872802135234E-19   6.46709999945924E-16   3.51820482491550E-15   0.00000000000000E+00   0.00000000000000E+00
      0.00000000000000E+00   0.00000000000000E+00  -1.03632245810121E-18  -6.38471391890336E-17  -6.48834616471348E-17
     -1.59005108781300E-15  -3.28172839506173E-01  -3.28172839506173E-01   0.00000000000000E+00   0.00000000000000E+00
     -2.29527079263392E-17  -5.58873830372450E-16  -5.81826538298789E-16  -1.92815373710250E-15
      1.35434951989026E-02
      8.00000000000000E-01   8.00000000000000E-01   0.00000000000000E+00   0.00000000000000E+00   7.42904190450636E-16
      1.36411443815712E-18   7.44268304888793E-16   3.52139362823359E-15   0.00000000000000E+00   0.00000000000000E+00
      0.00000000000000E+00   0.00000000000000E+00  -1.03632244977844E-18  -6.34904530548968E-17  -6.45267755046753E-17
     -1.59002460905228E-15  -6.77174759945130E-01  -6.77174759945130E-01   0.00000000000000E+00   0.00000000000000E+00
     -2.29528136187228E-17  -6.56788715765395E-16  -6.79741529384118E-16  -1.93136901918132E-15
      2.35434951989026E-02
      8.00000000000000E-01   8.00000000000000E-01   0.00000000000000E+00   0.00000000000000E+00   8.64812675522172E-16
     -4.54767456687057E-19   8.64357908065485E-16   3.52585418053265E-15   0.00000000000000E+00   0.00000000000000E+00
      0.00000000000000E+00   0.00000000000000E+00  -1.03632240821087E-18  -6.31066805517680E-17  -6.41430029599789E-17
     -1.58989239949795E-15  -1.17717475994513E+00  -1.17717475994513E+00   0.00000000000000E+00   0.00000000000000E+00
     -2.29529650190181E-17  -7.77261940086488E-16  -8.00214905105506E-16  -1.93596178103470E-15
      3.35434951989026E-02
      8.00000000000000E-01   8.00000000000000E-01   0.00000000000000E+00   0.00000000000000E+00   9.69839593137491E-16
     -2.55147583244652E-18   9.67288117305044E-16   3.52999618118023E-15   0.00000000000000E+00   0.00000000000000E+00
      0.00000000000000E+00   0.00000000000000E+00  -1.03632226562277E-18  -6.29367916013886E-17  -6.39731138670113E-17
     -1.58943900212356E-15  -1.67717475994513E+00  -1.67717475994513E+00   0.00000000000000E+00   0.00000000000000E+00
     -2.29531169049908E-17  -8.80361886533042E-16  -9.03315003438033E-16  -1.94055717905668E-15
      4.35434951989026E-02
      8.00000000000000E-01   8.00000000000000E-01   0.00000000000000E+00   0.00000000000000E+00   1.05568698545360E-15
      2.17403893104076E-19   1.05590438934671E-15   3.53338348881378E-15   0.00000000000000E+00   0.00000000000000E+00
      0.00000000000000E+00   0.00000000000000E+00  -1.03632186894083E-18  -6.30078546699689E-17  -6.40441765389098E-17
     -1.58817628805036E-15  -2.17717475994513E+00  -2.17717475994513E+00   0.00000000000000E+00   0.00000000000000E+00
     -2.29532709308526E-17  -9.68906941876945E-16  -9.91860212807797E-16  -1.94520720076343E-15
      5.35434951989026E-02
      8.00000000000000E-01   8.00000000000000E-01   0.00000000000000E+00   0.00000000000000E+00   1.12561179076961E-15
      8.18817568301632E-19   1.12643060833791E-15   3.53526948138362E-15   0.00000000000000E+00   0.00000000000000E+00
      0.00000000000000E+00   0.00000000000000E+00  -1.03632097132090E-18  -6.35456573462201E-17  -6.45819783175410E-17
     -1.58530399379387E-15  -2.67717475994513E+00  -2.67717475994513E+00   0.00000000000000E+00   0.00000000000000E+00
     -2.29534288434406E-17  -1.03889520117692E-15  -1.06184863002036E-15  -1.94996548758975E-15
      6.35434951989026E-02
      8.00000000000000E-01   8.00000000000000E-01   0.00000000000000E+00   0.00000000000000E+00   1.18232335745868E-15
      1.49409527408338E-17   1.19726431019952E-15   3.53486618638676E-15   0.00000000000000E+00   0.00000000000000E+00
      0.00000000000000E+00   0.00000000000000E+00  -1.03631933669951E-18  -6.47457099177338E-17  -6.57820292544333E-17
     -1.57999185471177E-15  -3.17717475994513E+00  -3.17717475994513E+00   0.00000000000000E+00   0.00000000000000E+00
     -2.29535920360376E-17  -1.10852868890904E-15  -1.13148228094508E-15  -1.95487433167499E-15
      7.35434951989026E-02
      8.00000000000000E-01   8.00000000000000E-01   0.00000000000000E+00   0.00000000000000E+00   1.22739522190746E-15
     -4.92367812174622E-18   1.22247154378572E-15   3.53195891381581E-15   0.00000000000000E+00   0.00000000000000E+00
      0.00000000000000E+00   0.00000000000000E+00  -1.03631694359083E-18  -6.69854864982620E-17  -6.80218034418528E-17
     -1.57199134878342E-15  -3.67717475994513E+00  -3.67717475994513E+00   0.00000000000000E+00   0.00000000000000E+00
     -2.29537616351663E-17  -1.13149597870870E-15  -1.15444974034387E-15  -1.95996756503239E-15
      8.35434951989026E-02
      8.00000000000000E-01   8.00000000000000E-01   0.00000000000000E+00   0.00000000000000E+00   1.26257390027949E-15
     -3.81781365344830E-18   1.25875608662604E-15   3.52706750703176E-15   0.00000000000000E+00   0.00000000000000E+00
      0.00000000000000E+00   0.00000000000000E+00  -1.03631400150397E-18  -7.02120448695834E-17  -7.12483588710874E-17
     -1.56179449809666E-15  -4.17717475994513E+00  -4.17717475994513E+00   0.00000000000000E+00   0.00000000000000E+00
     -2.29539385772002E-17  -1.16455378917775E-15  -1.18750772775495E-15  -1.96527300893510E-15
      9.35434951989026E-02
      8.00000000000000E-01   8.00000000000000E-01   0.00000000000000E+00   0.00000000000000E+00   1.28926634837729E-15
     -1.66548351914091E-18   1.28760086485815E-15   3.52085664616013E-15   0.00000000000000E+00   0.00000000000000E+00
      0.00000000000000E+00   0.00000000000000E+00  -1.03631073195779E-18  -7.38950027836579E-17  -7.49313135156157E-17
     -1.55004751076482E-15  -4.67717475994513E+00  -4.67717475994513E+00   0.00000000000000E+00   0.00000000000000E+00
     -2.29541234938297E-17  -1.18971542784870E-15  -1.21266955134253E-15  -1.97080913539531E-15
      1.03543495198903E-01
      8.00000000000000E-01   8.00000000000000E-01   0.00000000000000E+00   0.00000000000000E+00   1.30819591737484E-15
     -3.10366804398389E-18   1.30509224933086E-15   3.51376664360690E-15   0.00000000000000E+00   0.00000000000000E+00
      0.00000000000000E+00   0.00000000000000E+00  -1.03630726425268E-18  -7.67131170687208E-17  -7.77494243329735E-17
     -1.53718186337543E-15  -5.17717475994513E+00  -5.17717475994513E+00   0.00000000000000E+00   0.00000000000000E+00
     -2.29543166994477E-17  -1.20438850829844E-15  -1.22734282499789E-15  -1.97658478023146E-15
      1.13543495198903E-01
      8.00000000000000E-01   8.00000000000000E-01   0.00000000000000E+00   0.00000000000000E+00   1.32098243596527E-15
     -4.17363395431103E-18   1.31680880201096E-15   3.50604073862085E-15   0.00000000000000E+00   0.00000000000000E+00
      0.00000000000000E+00   0.00000000000000E+00  -1.03630366190357E-18  -7.81023183966965E-17  -7.91386220586001E-17
     -1.52343781720454E-15  -5.67717475994513E+00  -5.67717475994513E+00   0.00000000000000E+00   0.00000000000000E+00
     -2.29545183151382E-17  -1.21471566163722E-15  -1.23767017995236E-15  -1.98260292141631E-15
      1.23543495198903E-01
      8.00000000000000E-01   8.00000000000000E-01   0.00000000000000E+00   0.00000000000000E+00   1.32991924400635E-15
     -3.70258096928701E-18   1.32621666303707E-15   3.49781474382444E-15   0.00000000000000E+00   0.00000000000000E+00
      0.00000000000000E+00   0.00000000000000E+00  -1.03629995716291E-18  -7.84626753977657E-17  -7.94989753549286E-17
     -1.50895106806450E-15  -6.17717475994513E+00  -6.17717475994513E+00   0.00000000000000E+00   0.00000000000000E+00
     -2.29547283677125E-17  -1.22376295931443E-15  -1.24671768768214E-15  -1.98886367575994E-15
      1.33543495198903E-01
      8.00000000000000E-01   8.00000000000000E-01   0.00000000000000E+00   0.00000000000000E+00   1.33664252695359E-15
     -1.46874429408141E-17   1.32195508401277E-15   3.48916977242803E-15   0.00000000000000E+00   0.00000000000000E+00
      0.00000000000000E+00   0.00000000000000E+00  -1.03629616828199E-18  -7.82886701296040E-17  -7.93249662978860E-17
     -1.49380395183809E-15  -6.67717475994513E+00  -6.67717475994513E+00   0.00000000000000E+00   0.00000000000000E+00
     -2.29549468400962E-17  -1.21967517087479E-15  -1.24263011771489E-15  -1.99536582058996E-15
      1.43543495198903E-01
      8.00000000000000E-01   8.00000000000000E-01   0.00000000000000E+00   0.00000000000000E+00   1.34201918522957E-15
     -4.57023630319918E-19   1.34156216159925E-15   3.48015749793845E-15   0.00000000000000E+00   0.00000000000000E+00
      0.00000000000000E+00   0.00000000000000E+00  -1.03629230682870E-18  -7.77683942849773E-17  -7.88046865918060E-17
     -1.47804999463449E-15  -7.17717475994513E+00  -7.17717475994513E+00   0.00000000000000E+00   0.00000000000000E+00
     -2.29551736948456E-17  -1.23980230131260E-15  -1.26275747500744E-15  -2.00210750330395E-15
      1.53543495198903E-01
      8.00000000000000E-01   8.00000000000000E-01   0.00000000000000E+00   0.00000000000000E+00   1.34647335078166E-15
     -1.71144723499026E-17   1.32935887843175E-15   3.47081229163715E-15   0.00000000000000E+00   0.00000000000000E+00
      0.00000000000000E+00   0.00000000000000E+00  -1.03628838084664E-18  -7.70216116187972E-17  -7.80578999996438E-17
     -1.46172570876924E-15  -7.67717475994513E+00  -7.67717475994513E+00   0.00000000000000E+00   0.00000000000000E+00
     -2.29554088854629E-17  -1.22834556954665E-15  -1.25130097843211E-15  -2.00908658286790E-15
      1.63543495198903E-01
      8.00000000000000E-01   8.00000000000000E-01   0.00000000000000E+00   0.00000000000000E+00   1.35022313432890E-15
     -1.96993854576521E-17   1.33052374887125E-15   3.46115745740297E-15   0.00000000000000E+00   0.00000000000000E+00
      0.00000000000000E+00   0.00000000000000E+00  -1.03628439633954E-18  -7.61743002176149E-17  -7.72105846139544E-17
     -1.44485665182277E-15  -8.17717475994513E+00  -8.17717475994513E+00   0.00000000000000E+00   0.00000000000000E+00
     -2.29556523622265E-17  -1.23035751189507E-15  -1.25331316425729E-15  -2.01630080558019E-15
      1.73543495198903E-01
      8.00000000000000E-01   8.00000000000000E-01   0.00000000000000E+00   0.00000000000000E+00   1.35340673388434E-15
     -4.35670271333608E-18   1.34905003117101E-15   3.45120870511903E-15   0.00000000000000E+00   0.00000000000000E+00
      0.00000000000000E+00   0.00000000000000E+00  -1.03628035804442E-18  -7.51755615786498E-17  -7.62118419366942E-17
     -1.42746080377031E-15  -8.67717475994513E+00  -8.67717475994513E+00   0.00000000000000E+00   0.00000000000000E+00
     -2.29559040753862E-17  -1.24988228515893E-15  -1.27283818923431E-15  -2.02374790134872E-15
      1.83543495198903E-01
      8.00000000000000E-01   8.00000000000000E-01   0.00000000000000E+00   0.00000000000000E+00   1.35612838696834E-15
      5.19611105116827E-18   1.36132449801951E-15   3.44097624323876E-15   0.00000000000000E+00   0.00000000000000E+00
      0.00000000000000E+00   0.00000000000000E+00  -1.03627626987469E-18  -7.40356434520606E-17  -7.50719197219353E-17
     -1.40955060501866E-15  -9.17717475994513E+00  -9.17717475994513E+00   0.00000000000000E+00   0.00000000000000E+00
     -2.29561639769747E-17  -1.26329641432060E-15  -1.28625257829757E-15  -2.03142563822010E-15
      1.93543495198903E-01
      8.00000000000000E-01   8.00000000000000E-01   0.00000000000000E+00   0.00000000000000E+00   1.35846499504068E-15
     -7.82540547663411E-18   1.35063958956404E-15   3.43046618967323E-15   0.00000000000000E+00   0.00000000000000E+00
      0.00000000000000E+00   0.00000000000000E+00  -1.03627213520072E-18  -7.26549058972734E-17  -7.36911780324741E-17
     -1.39113433456473E-15  -9.67717475994513E+00  -9.67717475994513E+00   0.00000000000000E+00   0.00000000000000E+00
     -2.29564320218985E-17  -1.25399197950967E-15  -1.27694841153157E-15  -2.03933185510850E-15
      2.03543495198903E-01
      8.00000000000000E-01   8.00000000000000E-01   0.00000000000000E+00   0.00000000000000E+00   1.36049718670163E-15
      6.89025697383848E-18   1.36738744367547E-15   3.41968177676358E-15   0.00000000000000E+00   0.00000000000000E+00
      0.00000000000000E+00   0.00000000000000E+00  -1.03626795705655E-18  -7.06201617741332E-17  -7.16564297311898E-17
     -1.37221728905429E-15  -1.01771747599451E+01  -1.01771747599451E+01   0.00000000000000E+00   0.00000000000000E+00
     -2.29567081688175E-17  -1.27277430577546E-15  -1.29573101394428E-15  -2.04746448770928E-15
      2.13543495198903E-01
      8.00000000000000E-01   8.00000000000000E-01   0.00000000000000E+00   0.00000000000000E+00   1.36230033318172E-15
     -2.08802935081804E-18   1.36021230383090E-15   3.40862478019884E-15   0.00000000000000E+00   0.00000000000000E+00
      0.00000000000000E+00   0.00000000000000E+00  -1.03626373833056E-18  -6.65861041951174E-17  -6.76223679334480E-17
     -1.35280317854243E-15  -1.06771747599451E+01  -1.06771747599451E+01   0.00000000000000E+00   0.00000000000000E+00
     -2.29569923812655E-17  -1.26963294351619E-15  -1.29258993589746E-15  -2.05582160165641E-15
      2.23543495198903E-01
      8.00000000000000E-01   8.00000000000000E-01   0.00000000000000E+00   0.00000000000000E+00   1.36392639921147E-15
     -2.30851836070468E-17   1.34084121560442E-15   3.39729759877024E-15   0.00000000000000E+00   0.00000000000000E+00
      0.00000000000000E+00   0.00000000000000E+00  -1.03625948197926E-18  -5.56486470705298E-17  -5.66849065525091E-17
     -1.33289615286683E-15  -1.11771747599451E+01  -1.11771747599451E+01   0.00000000000000E+00   0.00000000000000E+00
     -2.29572846294923E-17  -1.26119902442242E-15  -1.28415630905191E-15  -2.06440144590341E-15
      2.33543495198903E-01
      8.00000000000000E-01   8.00000000000000E-01   0.00000000000000E+00   0.00000000000000E+00   1.36541350605160E-15
     -2.12555546421807E-18   1.36328795058738E-15   3.38570632566151E-15   0.00000000000000E+00   0.00000000000000E+00
      0.00000000000000E+00   0.00000000000000E+00  -1.03625519128310E-18  -2.10264962238057E-17  -2.20627514150888E-17
     -1.31250379114193E-15  -1.16771747599451E+01  -1.16771747599451E+01   0.00000000000000E+00   0.00000000000000E+00
     -2.29575848932850E-17  -1.31826761427901E-15  -1.34122519917229E-15  -2.07320253451958E-15
      2.43543495198903E-01
      8.00000000000000E-01   8.00000000000000E-01   0.00000000000000E+00   0.00000000000000E+00   1.36678956213747E-15
     -1.29017575687534E-17   1.35388780456872E-15   3.37386478271336E-15   0.00000000000000E+00   0.00000000000000E+00
      0.00000000000000E+00   0.00000000000000E+00  -1.03625087012284E-18   9.40016587381575E-17   9.29654078680346E-17
     -1.29164103137715E-15  -1.21771747599451E+01  -1.21771747599451E+01   0.00000000000000E+00   0.00000000000000E+00
     -2.29578931655964E-17  -1.42389531927115E-15  -1.44685321243675E-15  -2.08222375133622E-15
      2.53543495198903E-01
      8.00000000000000E-01   8.00000000000000E-01   0.00000000000000E+00   0.00000000000000E+00   1.36807083895707E-15
      9.78544500176955E-18   1.37785628395884E-15   3.36179866200273E-15   0.00000000000000E+00   0.00000000000000E+00
      0.00000000000000E+00   0.00000000000000E+00  -1.03624652319216E-18   4.76140199416694E-16   4.75103952893501E-16
     -1.27033421613258E-15  -1.26771747599451E+01  -1.26771747599451E+01   0.00000000000000E+00   0.00000000000000E+00
     -2.29582094559327E-17  -1.83000202739641E-15  -1.85296023685234E-15  -2.09146444587017E-15
      2.63543495198903E-01
      8.00000000000000E-01   8.00000000000000E-01   0.00000000000000E+00   0.00000000000000E+00   1.36926006246127E-15
      1.56918427190944E-17   1.38495190518037E-15   3.34954790353453E-15   0.00000000000000E+00   0.00000000000000E+00
      0.00000000000000E+00   0.00000000000000E+00  -1.03624215600226E-18   1.72319761873046E-15   1.72216137657446E-15
     -1.24862344156067E-15  -1.31771747599451E+01  -1.31771747599451E+01   0.00000000000000E+00   0.00000000000000E+00
     -2.29585337914461E-17  -3.08415474796338E-15  -3.10711328175483E-15  -2.10092446197386E-15
      2.73543495198903E-01
      8.00000000000000E-01   8.00000000000000E-01   0.00000000000000E+00   0.00000000000000E+00   1.37034579189360E-15
     -4.36181292264423E-18   1.36598397897096E-15   3.33716530429761E-15   0.00000000000000E+00   0.00000000000000E+00
      0.00000000000000E+00   0.00000000000000E+00  -1.03623777453798E-18   5.69222502014085E-15   5.69118878236631E-15
     -1.22656125859103E-15  -1.36771747599451E+01  -1.36771747599451E+01   0.00000000000000E+00   0.00000000000000E+00
     -2.29588662139175E-17  -7.03421389512335E-15  -7.05717276133727E-15  -2.11060404570658E-15
      2.83543495198903E-01
      8.00000000000000E-01   8.00000000000000E-01   0.00000000000000E+00   0.00000000000000E+00   1.37130284493471E-15
     -3.68429545584024E-17   1.33445989037631E-15   3.32471108946037E-15   0.00000000000000E+00   0.00000000000000E+00
      0.00000000000000E+00   0.00000000000000E+00  -1.03623338443737E-18   1.79673695617065E-14   1.79663333283220E-14
     -1.20420745028925E-15  -1.41771747599451E+01  -1.41771747599451E+01   0.00000000000000E+00   0.00000000000000E+00
     -2.29592067727708E-17  -1.92778340119255E-14  -1.93007932186983E-14  -2.12050363917113E-15
      2.93543495198903E-01
      8.00000000000000E-01   8.00000000000000E-01   0.00000000000000E+00   0.00000000000000E+00   1.37208978263504E-15
      7.25664609244506E-18   1.37934642872748E-15   3.31224577932027E-15   0.00000000000000E+00  -9.18447372075268E-17
      0.00000000000000E+00   0.00000000000000E+00  -1.03622898908495E-18   5.47647074629992E-14   5.47636712340101E-14
     -1.18162213601571E-15  -1.46771747599451E+01  -1.46771747599451E+01   0.00000000000000E+00   0.00000000000000E+00
     -2.29595555169545E-17  -5.61200581072206E-14  -5.61430176627376E-14  -2.13062364330456E-15
      3.03543495198903E-01
      8.00000000000000E-01   8.00000000000000E-01   0.00000000000000E+00   0.00000000000000E+00   1.37263589790939E-15
      3.79846907301625E-17   1.41062058863955E-15   3.29982461079584E-15   0.00000000000000E+00  -1.83689474415054E-16
      0.00000000000000E+00   0.00000000000000E+00  -1.03622458343764E-18   1.61483642304104E-13   1.61482606079520E-13
     -1.15886036033574E-15  -1.51771747599451E+01  -1.51771747599451E+01   0.00000000000000E+00   0.00000000000000E+00
     -2.29599124891530E-17  -1.62870266755671E-13  -1.62893226668160E-13  -2.14096425046010E-15
      3.13543495198903E-01
      8.00000000000000E-01   8.00000000000000E-01   0.00000000000000E+00   0.00000000000000E+00   1.37280683390346E-15
      1.30814072927710E-17   1.38588824119623E-15   3.28749528225261E-15   0.00000000000000E+00  -4.59223686037634E-16
      0.00000000000000E+00   0.00000000000000E+00  -1.03622013130674E-18   4.60460032256556E-13   4.60458996036425E-13
     -1.13596988357147E-15  -1.56771747599451E+01  -1.56771747599451E+01   0.00000000000000E+00   0.00000000000000E+00
     -2.29602777241562E-17  -4.61821923999896E-13  -4.61844884277620E-13  -2.15152539868113E-15
      3.23543495198903E-01
      8.00000000000000E-01   8.00000000000000E-01   0.00000000000000E+00   0.00000000000000E+00   1.37232552948875E-15
     -2.37975556654562E-17   1.34852797382330E-15   3.27529878166914E-15   0.00000000000000E+00  -1.28582632090537E-15
      0.00000000000000E+00   0.00000000000000E+00  -1.03621548829893E-18   1.26847208570272E-12   1.26847104948723E-12
     -1.11299193093523E-15  -1.61771747599451E+01  -1.61771747599451E+01   0.00000000000000E+00   0.00000000000000E+00
     -2.29606512515415E-17  -1.26979661680980E-12  -1.26981957746105E-12  -2.16230685073390E-15
      3.33543495198903E-01
      8.00000000000000E-01   8.00000000000000E-01   0.00000000000000E+00   0.00000000000000E+00   1.37059860355475E-15
     -2.05095433604765E-17   1.35008906019427E-15   3.26327222191270E-15   0.00000000000000E+00  -3.39825527667849E-15
      0.00000000000000E+00   0.00000000000000E+00  -1.03620991029603E-18   3.37233879494900E-12   3.37233775873909E-12
     -1.08996381711113E-15  -1.66771747599451E+01  -1.66771747599451E+01   0.00000000000000E+00   0.00000000000000E+00
     -2.29610331029795E-17  -3.37366488676620E-12  -3.37368784779930E-12  -2.17330840480158E-15
      3.43543495198903E-01
      8.00000000000000E-01   8.00000000000000E-01   0.00000000000000E+00   0.00000000000000E+00   1.36636451681915E-15
      1.72287267035756E-18   1.36808738948951E-15   3.25145291695608E-15   0.00000000000000E+00  -8.63340529750751E-15
      0.00000000000000E+00   0.00000000000000E+00  -1.03620277414538E-18   8.64256581259550E-12   8.64256477639273E-12
     -1.06692261382622E-15  -1.71771747599451E+01  -1.71771747599451E+01   0.00000000000000E+00   0.00000000000000E+00
     -2.29614233265659E-17  -8.64390990235883E-12  -8.64393286378215E-12  -2.18453030312987E-15
      3.53543495198903E-01
      8.00000000000000E-01   8.00000000000000E-01   0.00000000000000E+00   0.00000000000000E+00   1.35707105211872E-15
     -2.31539506872590E-17   1.33391710143146E-15   3.23988364532009E-15   0.00000000000000E+00  -2.13079790321462E-14
      0.00000000000000E+00   0.00000000000000E+00  -1.03618977143000E-18   2.13228551168814E-11   2.13228540806917E-11
     -1.04390963800245E-15  -1.76771747599451E+01  -1.76771747599451E+01   0.00000000000000E+00   0.00000000000000E+00
     -2.29618220142026E-17  -2.13241650359711E-11  -2.13241879977931E-11  -2.19597400731764E-15
      3.63543495198903E-01
      8.00000000000000E-01   8.00000000000000E-01   0.00000000000000E+00   0.00000000000000E+00   1.33804267256282E-15
      8.78162400006427E-18   1.34682429656288E-15   3.22861966297383E-15   0.00000000000000E+00  -5.06064502013472E-14
      0.00000000000000E+00   0.00000000000000E+00  -1.03616299455202E-18   5.05637141453417E-11   5.05637131091787E-11
     -1.02097601876367E-15  -1.81771747599451E+01  -1.81771747599451E+01   0.00000000000000E+00   0.00000000000000E+00
     -2.29622293529193E-17  -5.05650369712464E-11  -5.05650599334758E-11  -2.20764364421016E-15
      3.73543495198903E-01
      8.00000000000000E-01   8.00000000000000E-01   0.00000000000000E+00   0.00000000000000E+00   1.30214273478656E-15
     -1.05132475572660E-19   1.30203760231099E-15   3.21773828041341E-15   0.00000000000000E+00  -1.14989610983824E-13
      0.00000000000000E+00   0.00000000000000E+00  -1.03610721376959E-18   1.15004929620802E-10   1.15004928584695E-10
     -9.98189725110275E-16  -1.86771747599451E+01  -1.86771747599450E+01   0.00000000000000E+00   0.00000000000000E+00
     -2.29626457157418E-17  -1.15006207659652E-10  -1.15006230622298E-10  -2.21954855530314E-15
      3.83543495198903E-01
      8.00000000000000E-01   8.00000000000000E-01   0.00000000000000E+00   0.00000000000000E+00   1.24180015587800E-15
      1.81669414482993E-17   1.25996709732630E-15   3.20735129375664E-15   0.00000000000000E+00  -2.50185064153303E-13
      0.00000000000000E+00   0.00000000000000E+00  -1.03600078254505E-18   2.50198888993594E-10   2.50198887957594E-10
     -9.75643926404611E-16  -1.91771747599451E+01  -1.91771747599449E+01   0.00000000000000E+00   0.00000000000000E+00
     -2.29630718074764E-17  -2.50200124961618E-10  -2.50200147924689E-10  -2.23170736735203E-15
      3.93543495198903E-01
      8.00000000000000E-01   8.00000000000000E-01   0.00000000000000E+00   0.00000000000000E+00   1.15466148828956E-15
      1.20718109711526E-17   1.16673329926072E-15   3.19761851617264E-15   0.00000000000000E+00  -5.18830920485319E-13
      0.00000000000000E+00   0.00000000000000E+00  -1.03582561641040E-18   5.18834067490124E-10   5.18834066454298E-10
     -9.53464982867485E-16  -1.96771747599451E+01  -1.96771747599446E+01   0.00000000000000E+00   0.00000000000000E+00
     -2.29635088643972E-17  -5.18835210224089E-10  -5.18835233187597E-10  -2.24415353330516E-15
      4.03543495198903E-01
      8.00000000000000E-01   8.00000000000000E-01   0.00000000000000E+00   0.00000000000000E+00   1.04834054158588E-15
      3.02091047329455E-17   1.07854964631883E-15   3.18875661484000E-15   0.00000000000000E+00  -1.02131347774770E-12
      0.00000000000000E+00   0.00000000000000E+00  -1.03558147125663E-18   1.02135604377963E-09   1.02135604274405E-09
     -9.31815623557786E-16  -2.01771747599451E+01  -2.01771747599441E+01   0.00000000000000E+00   0.00000000000000E+00
     -2.29639588607901E-17  -1.02135709832972E-09  -1.02135712129368E-09  -2.25694099128221E-15
      4.13543495198903E-01
      8.00000000000000E-01   8.00000000000000E-01   0.00000000000000E+00   0.00000000000000E+00   9.36834542717324E-16
      3.21291562275181E-17   9.68963698944842E-16   3.18103319414797E-15   0.00000000000000E+00  -1.90100237072139E-12
      0.00000000000000E+00   0.00000000000000E+00  -1.03528534799660E-18   1.90097343788541E-09   1.90097343685012E-09
     -9.10886552368420E-16  -2.06771747599451E+01  -2.06771747599432E+01   0.00000000000000E+00   0.00000000000000E+00
     -2.29644246052550E-17  -1.90097438284939E-09  -1.90097440581382E-09  -2.27014664177955E-15
      4.23543495198903E-01
      8.00000000000000E-01   8.00000000000000E-01   0.00000000000000E+00   0.00000000000000E+00   8.32175187860319E-16
     -2.29865645549578E-18   8.29876531404823E-16   3.17473742515454E-15   0.00000000000000E+00  -3.33534163169133E-12
      0.00000000000000E+00   0.00000000000000E+00  -1.03495475024056E-18   3.33531105806941E-09   3.33531105703445E-09
     -8.90871937316156E-16  -2.11771747599451E+01  -2.11771747599418E+01   0.00000000000000E+00   0.00000000000000E+00
     -2.29649095773949E-17  -3.33531186394610E-09  -3.33531188691101E-09  -2.28386548783839E-15
      4.33543495198903E-01
      8.00000000000000E-01   8.00000000000000E-01   0.00000000000000E+00   0.00000000000000E+00   7.40454180789090E-16
     -3.18741882796945E-17   7.08579992509395E-16   3.17013096340569E-15   0.00000000000000E+00  -5.51206190350972E-12
      0.00000000000000E+00   0.00000000000000E+00  -1.03459610055497E-18   5.51205509156169E-09   5.51205509052709E-09
     -8.71933804995844E-16  -2.16771747599451E+01  -2.16771747599396E+01   0.00000000000000E+00   0.00000000000000E+00
     -2.29654174554453E-17  -5.51205577614168E-09  -5.51205579910709E-09  -2.29819715840984E-15
      4.43543495198903E-01
      8.00000000000000E-01   8.00000000000000E-01   0.00000000000000E+00   0.00000000000000E+00   6.62519876710401E-16
     -2.32357236643211E-17   6.39284153046080E-16   3.16739964546807E-15   0.00000000000000E+00  -8.59703478157333E-12
      0.00000000000000E+00   0.00000000000000E+00  -1.03420479171870E-18   8.59705822802224E-09   8.59705822698804E-09
     -8.54171055498832E-16  -2.21771747599451E+01  -2.21771747599365E+01   0.00000000000000E+00   0.00000000000000E+00
     -2.29659515008260E-17  -8.59705884330604E-09  -8.59705886627199E-09  -2.31322858996924E-15
      4.53543495198903E-01
      8.00000000000000E-01   8.00000000000000E-01   0.00000000000000E+00   0.00000000000000E+00   5.96358522410051E-16
      1.60827030701117E-17   6.12441225480162E-16   3.16662920746279E-15   0.00000000000000E+00  -1.27099339584636E-11
      0.00000000000000E+00   0.00000000000000E+00  -1.03377026416368E-18   1.27099506375145E-08   1.27099506364807E-08
     -8.37608154637094E-16  -2.26771747599451E+01  -2.26771747599324E+01   0.00000000000000E+00   0.00000000000000E+00
     -2.29665140902900E-17  -1.27099512259552E-08  -1.27099512489217E-08  -2.32902105282569E-15
      4.63543495198903E-01
      8.00000000000000E-01   8.00000000000000E-01   0.00000000000000E+00   0.00000000000000E+00   5.39453632488787E-16
      2.73653469346626E-17   5.66818979423450E-16   3.16781175940684E-15   0.00000000000000E+00  -1.79165202660211E-11