DF-ISE text

Info {
  version   = 1.0
  type      = xyplot
  datasets  = [
    "time"
    "Ntop OuterVoltage" "Ntop InnerVoltage" "Ntop QuasiFermiPotential" "Ntop DisplacementCurrent" "Ntop eCurrent"
    "Ntop hCurrent" "Ntop TotalCurrent" "Ntop Charge" "Ptop OuterVoltage" "Ptop InnerVoltage"
    "Ptop QuasiFermiPotential" "Ptop DisplacementCurrent" "Ptop eCurrent" "Ptop hCurrent" "Ptop TotalCurrent"
    "Ptop Charge" "Pbot OuterVoltage" "Pbot InnerVoltage" "Pbot QuasiFermiPotential" "Pbot DisplacementCurrent"
    "Pbot eCurrent" "Pbot hCurrent" "Pbot TotalCurrent" "Pbot Charge" ]
  functions = [
    Time
    OuterVoltage InnerVoltage QuasiFermiPotential DisplacementCurrent eCurrent
    hCurrent TotalCurrent Charge OuterVoltage InnerVoltage
    QuasiFermiPotential DisplacementCurrent eCurrent hCurrent TotalCurrent
    Charge OuterVoltage InnerVoltage QuasiFermiPotential DisplacementCurrent
    eCurrent hCurrent TotalCurrent Charge ]
}

Data {
      1.00000000000000E-03
      8.00000000000000E-01   8.00000000000000E-01   0.00000000000000E+00   0.00000000000000E+00   5.57287675725580E-16
     -1.26034403042770E-19   5.57161641322538E-16   4.11097987875065E-15   0.00000000000000E+00   0.00000000000000E+00
      0.00000000000000E+00   0.00000000000000E+00  -1.03632214219965E-18  -6.38765813930961E-17  -6.49129035352958E-17
     -2.18539568873192E-15  -5.00000000000000E-02  -5.00000000000000E-02   0.00000000000000E+00   0.00000000000000E+00
     -2.29526236908663E-17  -4.69296114096375E-16  -4.92248737787242E-16  -1.92558419001873E-15
      2.91111111111111E-03
      8.00000000000000E-01   8.00000000000000E-01   0.00000000000000E+00   0.00000000000000E+00   5.88907185955295E-16
      7.57555341423102E-19   5.89664741296718E-16   4.11186129287603E-15   0.00000000000000E+00   0.00000000000000E+00
      0.00000000000000E+00   0.00000000000000E+00  -1.03632214160117E-18  -6.37413765190321E-17  -6.47776986606333E-17
     -2.18539374147224E-15  -1.45555555555556E-01  -1.45555555555555E-01   0.00000000000000E+00   0.00000000000000E+00
     -2.29526526226524E-17  -5.01934390013432E-16  -5.24887042636085E-16  -1.92646755140377E-15
      6.56345679012346E-03
      8.00000000000000E-01   8.00000000000000E-01   0.00000000000000E+00   0.00000000000000E+00   6.45387834177106E-16
     -2.97866246766164E-19   6.45089967930340E-16   4.11354141448034E-15   0.00000000000000E+00   0.00000000000000E+00
      0.00000000000000E+00   0.00000000000000E+00  -1.03632213974544E-18  -6.35179629315462E-17  -6.45542850712917E-17
     -2.18538770374252E-15  -3.28172839506173E-01  -3.28172839506173E-01   0.00000000000000E+00   0.00000000000000E+00
     -2.29527079254735E-17  -5.57582974933575E-16  -5.80535682859048E-16  -1.92815371073781E-15
      1.35434951989026E-02
      8.00000000000000E-01   8.00000000000000E-01   0.00000000000000E+00   0.00000000000000E+00   7.42578052709036E-16
      1.73288673955646E-18   7.44310939448593E-16   4.11672891559952E-15   0.00000000000000E+00   0.00000000000000E+00
      0.00000000000000E+00   0.00000000000000E+00  -1.03632213122436E-18  -6.31566518533647E-17  -6.41929739845890E-17
     -2.18535998174877E-15  -6.77174759945130E-01  -6.77174759945130E-01   0.00000000000000E+00   0.00000000000000E+00
     -2.29528136159142E-17  -6.57165151848089E-16  -6.80117965464004E-16  -1.93136893385074E-15
      2.35434951989026E-02
      8.00000000000000E-01   8.00000000000000E-01   0.00000000000000E+00   0.00000000000000E+00   8.64520646244431E-16
      1.21003097370742E-18   8.65730677218138E-16   4.12118289280342E-15   0.00000000000000E+00   0.00000000000000E+00
      0.00000000000000E+00   0.00000000000000E+00  -1.03632208864062E-18  -6.27797337942101E-17  -6.38160558828507E-17
     -2.18522148470711E-15  -1.17717475994513E+00  -1.17717475994513E+00   0.00000000000000E+00   0.00000000000000E+00
     -2.29529650067070E-17  -7.78961656328580E-16  -8.01914621335287E-16  -1.93596140809632E-15
      3.35434951989026E-02
      8.00000000000000E-01   8.00000000000000E-01   0.00000000000000E+00   0.00000000000000E+00   9.69649380247955E-16
      4.31459258842295E-19   9.70080839506797E-16   4.12530168535738E-15   0.00000000000000E+00   0.00000000000000E+00
      0.00000000000000E+00   0.00000000000000E+00  -1.03632194233541E-18  -6.25990922352709E-17  -6.36354141776063E-17
     -2.18474579881996E-15  -1.67717475994513E+00  -1.67717475994513E+00   0.00000000000000E+00   0.00000000000000E+00
     -2.29531168622220E-17  -8.83492308466970E-16  -9.06445425329192E-16  -1.94055588653741E-15
      4.35434951989026E-02
      8.00000000000000E-01   8.00000000000000E-01   0.00000000000000E+00   0.00000000000000E+00   1.05572316528037E-15
      7.49139030305534E-18   1.06321455558342E-15   4.12862084782999E-15   0.00000000000000E+00   0.00000000000000E+00
      0.00000000000000E+00   0.00000000000000E+00  -1.03632153415244E-18  -6.27017644216706E-17  -6.37380859558230E-17
     -2.18341725092722E-15  -2.17717475994513E+00  -2.17717475994513E+00   0.00000000000000E+00   0.00000000000000E+00
     -2.29532708113621E-17  -9.76523198816235E-16  -9.99476469627598E-16  -1.94520359690277E-15
      5.35434951989026E-02
      8.00000000000000E-01   8.00000000000000E-01   0.00000000000000E+00   0.00000000000000E+00   1.12605545295970E-15
      1.69715242038029E-18   1.12775260538008E-15   4.13034186286006E-15   0.00000000000000E+00   0.00000000000000E+00
      0.00000000000000E+00   0.00000000000000E+00  -1.03632060754858E-18  -6.32646401376397E-17  -6.43009607451882E-17
     -2.18038466143184E-15  -2.67717475994513E+00  -2.67717475994513E+00   0.00000000000000E+00   0.00000000000000E+00
     -2.29534285682054E-17  -1.04049821606669E-15  -1.06345164463489E-15  -1.94995720142821E-15
      6.35434951989026E-02
      8.00000000000000E-01   8.00000000000000E-01   0.00000000000000E+00   0.00000000000000E+00   1.18333665412524E-15
      2.48720451515889E-19   1.18358537457675E-15   4.12962393496754E-15   0.00000000000000E+00   0.00000000000000E+00
      0.00000000000000E+00   0.00000000000000E+00  -1.03631891882369E-18  -6.45676164955145E-17  -6.56039354143382E-17
     -2.17476559480967E-15  -3.17717475994513E+00  -3.17717475994513E+00   0.00000000000000E+00   0.00000000000000E+00
     -2.29535915039679E-17  -1.09502784765845E-15  -1.11798143916242E-15  -1.95485834015786E-15
      7.35434951989026E-02
      8.00000000000000E-01   8.00000000000000E-01   0.00000000000000E+00   0.00000000000000E+00   1.22895444546544E-15
     -3.28566183370818E-18   1.22566878363173E-15   4.12625672515723E-15   0.00000000000000E+00   0.00000000000000E+00
      0.00000000000000E+00   0.00000000000000E+00  -1.03631645509991E-18  -6.69233922560365E-17  -6.79597087111364E-17
     -2.16631551138173E-15  -3.67717475994513E+00  -3.67717475994513E+00   0.00000000000000E+00   0.00000000000000E+00
     -2.29537607570117E-17  -1.13475531416358E-15  -1.15770907492060E-15  -1.95994121377550E-15
      8.35434951989026E-02
      8.00000000000000E-01   8.00000000000000E-01   0.00000000000000E+00   0.00000000000000E+00   1.26452734143613E-15
     -7.29408058319181E-19   1.26379793337782E-15   4.12081106569069E-15   0.00000000000000E+00   0.00000000000000E+00
      0.00000000000000E+00   0.00000000000000E+00  -1.03631344173826E-18  -7.03916620045053E-17  -7.14279754462435E-17
     -2.15557649992864E-15  -4.17717475994513E+00  -4.17717475994513E+00   0.00000000000000E+00   0.00000000000000E+00
     -2.29539372941118E-17  -1.16941602063746E-15  -1.19236995793157E-15  -1.96523456576204E-15
      9.35434951989026E-02
      8.00000000000000E-01   8.00000000000000E-01   0.00000000000000E+00   0.00000000000000E+00   1.29131972736304E-15
     -1.04223466909735E-18   1.29027749269394E-15   4.11398297292358E-15   0.00000000000000E+00   0.00000000000000E+00
      0.00000000000000E+00   0.00000000000000E+00  -1.03631010560890E-18  -7.42157711430678E-17  -7.52520812486767E-17
     -2.14322572330749E-15  -4.67717475994513E+00  -4.67717475994513E+00   0.00000000000000E+00   0.00000000000000E+00
     -2.29541217594705E-17  -1.19207128968579E-15  -1.21502541144526E-15  -1.97075724961608E-15
      1.03543495198903E-01
      8.00000000000000E-01   8.00000000000000E-01   0.00000000000000E+00   0.00000000000000E+00   1.31006410777633E-15
      4.61394886491200E-19   1.31052550266283E-15   4.10621870986225E-15   0.00000000000000E+00   0.00000000000000E+00
      0.00000000000000E+00   0.00000000000000E+00  -1.03630657462979E-18  -7.70041927822750E-17  -7.80404993569048E-17
     -2.12970069842795E-15  -5.17717475994513E+00  -5.17717475994513E+00   0.00000000000000E+00   0.00000000000000E+00
     -2.29543144642857E-17  -1.20953068884163E-15  -1.23248500330592E-15  -1.97651801143430E-15
      1.13543495198903E-01
      8.00000000000000E-01   8.00000000000000E-01   0.00000000000000E+00   0.00000000000000E+00   1.32260157574198E-15
     -3.45131862324911E-19   1.32225644387966E-15   4.09775806977069E-15   0.00000000000000E+00   0.00000000000000E+00
      0.00000000000000E+00   0.00000000000000E+00  -1.03630291017173E-18  -7.82892336689067E-17  -7.93255365790784E-17
     -2.11523846452343E-15  -5.67717475994513E+00  -5.67717475994513E+00   0.00000000000000E+00   0.00000000000000E+00
     -2.29545155219215E-17  -1.21997639177866E-15  -1.24293090730058E-15  -1.98251960524725E-15
      1.23543495198903E-01
      8.00000000000000E-01   8.00000000000000E-01   0.00000000000000E+00   0.00000000000000E+00   1.33134947930730E-15
     -2.90293534763471E-18   1.32844654395966E-15   4.08873016489860E-15   0.00000000000000E+00   0.00000000000000E+00
      0.00000000000000E+00   0.00000000000000E+00  -1.03629914285194E-18  -7.85841942574837E-17  -7.96204934003356E-17
     -2.09996827503348E-15  -6.17717475994513E+00  -6.17717475994513E+00   0.00000000000000E+00   0.00000000000000E+00
     -2.29547249502723E-17  -1.22587132560906E-15  -1.24882605055933E-15  -1.98876188986512E-15
      1.33543495198903E-01
      8.00000000000000E-01   8.00000000000000E-01   0.00000000000000E+00   0.00000000000000E+00   1.33794810920546E-15
     -1.12171703622192E-18   1.33682639216924E-15   4.07920691270391E-15   0.00000000000000E+00   0.00000000000000E+00
      0.00000000000000E+00   0.00000000000000E+00  -1.03629528962971E-18  -7.83468922718398E-17  -7.93831875614695E-17
     -2.08396356577021E-15  -6.67717475994513E+00  -6.67717475994513E+00   0.00000000000000E+00   0.00000000000000E+00
     -2.29549427220233E-17  -1.23448826188574E-15  -1.25744320460777E-15  -1.99524334693368E-15
      1.43543495198903E-01
      8.00000000000000E-01   8.00000000000000E-01   0.00000000000000E+00   0.00000000000000E+00   1.34324836098388E-15
      5.33635073009090E-18   1.34858471171397E-15   4.06922745957387E-15   0.00000000000000E+00   0.00000000000000E+00
      0.00000000000000E+00   0.00000000000000E+00  -1.03629136084708E-18  -7.77878215026123E-17  -7.88241128634593E-17
     -2.06726569942276E-15  -7.17717475994513E+00  -7.17717475994513E+00   0.00000000000000E+00   0.00000000000000E+00
     -2.29551687871323E-17  -1.24680543006338E-15  -1.26976059885051E-15  -2.00196176015111E-15
      1.53543495198903E-01
      8.00000000000000E-01   8.00000000000000E-01   0.00000000000000E+00   0.00000000000000E+00   1.34766492916481E-15
     -3.80038042288343E-18   1.34386454874193E-15   4.05880872872622E-15   0.00000000000000E+00   0.00000000000000E+00
      0.00000000000000E+00   0.00000000000000E+00  -1.03628736316741E-18  -7.70476560428608E-17  -7.80839434060283E-17
     -2.04989421490696E-15  -7.67717475994513E+00  -7.67717475994513E+00   0.00000000000000E+00   0.00000000000000E+00
     -2.29554030826723E-17  -1.24282520225323E-15  -1.26578060533590E-15  -2.00891451381924E-15
      1.63543495198903E-01
      8.00000000000000E-01   8.00000000000000E-01   0.00000000000000E+00   0.00000000000000E+00   1.35141425717575E-15
      1.67344481085256E-17   1.36814870528428E-15   4.04794927273965E-15   0.00000000000000E+00   0.00000000000000E+00
      0.00000000000000E+00   0.00000000000000E+00  -1.03628330086117E-18  -7.61481395120478E-17  -7.71844228129090E-17
     -2.03185056250160E-15  -8.17717475994513E+00  -8.17717475994513E+00   0.00000000000000E+00   0.00000000000000E+00
     -2.29556455366767E-17  -1.26800863693469E-15  -1.29096428247137E-15  -2.01609871023803E-15
      1.73543495198903E-01
      8.00000000000000E-01   8.00000000000000E-01   0.00000000000000E+00   0.00000000000000E+00   1.35463593072330E-15
     -2.86960175841836E-18   1.35176632896489E-15   4.03662939925628E-15   0.00000000000000E+00   0.00000000000000E+00
      0.00000000000000E+00   0.00000000000000E+00  -1.03627917637070E-18  -7.51271171002535E-17  -7.61633962766242E-17
     -2.01311821092772E-15  -8.67717475994513E+00  -8.67717475994513E+00   0.00000000000000E+00   0.00000000000000E+00
     -2.29558960686416E-17  -1.25264703661962E-15  -1.27560293268826E-15  -2.02351118832856E-15
      1.83543495198903E-01
      8.00000000000000E-01   8.00000000000000E-01   0.00000000000000E+00   0.00000000000000E+00   1.35742840592144E-15
      1.30418603723832E-17   1.37047026629382E-15   4.02480931420068E-15   0.00000000000000E+00   0.00000000000000E+00
      0.00000000000000E+00   0.00000000000000E+00  -1.03627499056767E-18  -7.39402122551825E-17  -7.49764872457502E-17
     -1.99366082032609E-15  -9.17717475994513E+00  -9.17717475994513E+00   0.00000000000000E+00   0.00000000000000E+00
     -2.29561545884311E-17  -1.27253762445964E-15  -1.29549377904808E-15  -2.03114849387458E-15
      1.93543495198903E-01
      8.00000000000000E-01   8.00000000000000E-01   0.00000000000000E+00   0.00000000000000E+00   1.35988056977801E-15
     -1.20005653131391E-17   1.34788000446487E-15   4.01242867786185E-15   0.00000000000000E+00   0.00000000000000E+00
      0.00000000000000E+00   0.00000000000000E+00  -1.03627074308401E-18  -7.24560568627179E-17  -7.34923276058019E-17
     -1.97342178162314E-15  -9.67717475994513E+00  -9.67717475994513E+00   0.00000000000000E+00   0.00000000000000E+00
     -2.29564209967259E-17  -1.25143125586234E-15  -1.27438767685907E-15  -2.03900689623871E-15
      2.03543495198903E-01
      8.00000000000000E-01   8.00000000000000E-01   0.00000000000000E+00   0.00000000000000E+00   1.36208990981143E-15
     -9.18158951038909E-18   1.35290832030105E-15   3.99941724876999E-15   0.00000000000000E+00   0.00000000000000E+00
      0.00000000000000E+00   0.00000000000000E+00  -1.03626643344032E-18  -7.00830049464431E-17  -7.11192713798834E-17
     -1.95233454601544E-15  -1.01771747599451E+01  -1.01771747599451E+01   0.00000000000000E+00   0.00000000000000E+00
     -2.29566951956032E-17  -1.25883235372556E-15  -1.28178904892116E-15  -2.04708270275456E-15
      2.13543495198903E-01
      8.00000000000000E-01   8.00000000000000E-01   0.00000000000000E+00   0.00000000000000E+00   1.36412366112992E-15
      8.58828984666998E-18   1.37271195097659E-15   3.98573490053710E-15   0.00000000000000E+00   0.00000000000000E+00
      0.00000000000000E+00   0.00000000000000E+00  -1.03626206406549E-18  -6.46382090353489E-17  -6.56744710994144E-17
     -1.93036159043712E-15  -1.06771747599451E+01  -1.06771747599451E+01   0.00000000000000E+00   0.00000000000000E+00
     -2.29569771242875E-17  -1.28408050275289E-15  -1.30703747987718E-15  -2.05537331009997E-15
      2.23543495198903E-01
      8.00000000000000E-01   8.00000000000000E-01   0.00000000000000E+00   0.00000000000000E+00   1.36601227860541E-15
     -7.99449653675368E-18   1.35801778206866E-15   3.97144163650399E-15   0.00000000000000E+00   0.00000000000000E+00
      0.00000000000000E+00   0.00000000000000E+00  -1.03625764468275E-18  -4.80292055495721E-17  -4.90654631942548E-17
     -1.90756271309381E-15  -1.11771747599451E+01  -1.11771747599451E+01   0.00000000000000E+00   0.00000000000000E+00
     -2.29572668180106E-17  -1.28599505205640E-15  -1.30895231887441E-15  -2.06387892341017E-15
      2.33543495198903E-01
      8.00000000000000E-01   8.00000000000000E-01   0.00000000000000E+00   0.00000000000000E+00   1.36775228816429E-15
      1.26022977095453E-17   1.38035458587384E-15   3.95672544621338E-15   0.00000000000000E+00   0.00000000000000E+00
      0.00000000000000E+00   0.00000000000000E+00  -1.03625319282517E-18   8.51876198342769E-18   7.48250879060252E-18
     -1.88412237523466E-15  -1.16771747599451E+01  -1.16771747599451E+01   0.00000000000000E+00   0.00000000000000E+00
     -2.29575644263181E-17  -1.36487953023812E-15  -1.38783709466444E-15  -2.07260307097872E-15
      2.43543495198903E-01
      8.00000000000000E-01   8.00000000000000E-01   0.00000000000000E+00   0.00000000000000E+00   1.36932158428613E-15
      1.88139186325401E-17   1.38813550291867E-15   3.94182124951678E-15   0.00000000000000E+00   0.00000000000000E+00
      0.00000000000000E+00   0.00000000000000E+00  -1.03624872717166E-18   2.04399266350768E-16   2.03363017623597E-16
     -1.86027085489535E-15  -1.21771747599451E+01  -1.21771747599451E+01   0.00000000000000E+00   0.00000000000000E+00
     -2.29578701384251E-17  -1.56854065040385E-15  -1.59149852054227E-15  -2.08155039462143E-15
      2.53543495198903E-01
      8.00000000000000E-01   8.00000000000000E-01   0.00000000000000E+00   0.00000000000000E+00   1.37069551266301E-15
      8.54368103455713E-18   1.37923919369757E-15   3.92691181596190E-15   0.00000000000000E+00   0.00000000000000E+00
      0.00000000000000E+00   0.00000000000000E+00  -1.03624426110272E-18   8.70870077002532E-16   8.69833832741430E-16
     -1.83618766063828E-15  -1.26771747599451E+01  -1.26771747599451E+01   0.00000000000000E+00   0.00000000000000E+00
     -2.29581840981143E-17  -2.22611484234088E-15  -2.24907302643900E-15  -2.09072415532362E-15
      2.63543495198903E-01
      8.00000000000000E-01   8.00000000000000E-01   0.00000000000000E+00   0.00000000000000E+00   1.37184943302952E-15
      3.69691866516973E-18   1.37554635169469E-15   3.91210489492481E-15   0.00000000000000E+00   0.00000000000000E+00
      0.00000000000000E+00   0.00000000000000E+00  -1.03623980205467E-18   3.07258992468840E-15   3.07155368488635E-15
     -1.81197917479873E-15  -1.31771747599451E+01  -1.31771747599451E+01   0.00000000000000E+00   0.00000000000000E+00
     -2.29585063857838E-17  -4.42414153019527E-15  -4.44710003658105E-15  -2.10012572012609E-15
      2.73543495198903E-01
      8.00000000000000E-01   8.00000000000000E-01   0.00000000000000E+00   0.00000000000000E+00   1.37275690482050E-15
      5.01495285614001E-18   1.37777185767664E-15   3.89745670519540E-15   0.00000000000000E+00   0.00000000000000E+00
      0.00000000000000E+00   0.00000000000000E+00  -1.03623533571676E-18   1.01079885182455E-14   1.01069522829097E-14
     -1.78770153049329E-15  -1.36771747599451E+01  -1.36771747599451E+01   0.00000000000000E+00   0.00000000000000E+00
     -2.29588370389771E-17  -1.14617653035474E-14  -1.14847241405864E-14  -2.10975517470211E-15
      2.83543495198903E-01
      8.00000000000000E-01   8.00000000000000E-01   0.00000000000000E+00   0.00000000000000E+00   1.37339007283110E-15
     -1.16354049142939E-17   1.36175466791680E-15   3.88299656433526E-15   0.00000000000000E+00   0.00000000000000E+00
      0.00000000000000E+00   0.00000000000000E+00  -1.03623086769391E-18   3.18195471690818E-14   3.18185109382141E-14
     -1.76338463185666E-15  -1.41771747599451E+01  -1.41771747599451E+01   0.00000000000000E+00   0.00000000000000E+00
     -2.29591760729955E-17  -3.31573064300582E-14  -3.31802656061312E-14  -2.11961193247860E-15
      2.93543495198903E-01
      8.00000000000000E-01   8.00000000000000E-01   0.00000000000000E+00   0.00000000000000E+00   1.37371402643002E-15
     -1.30575729070494E-17   1.36065645352297E-15   3.86874155145518E-15   0.00000000000000E+00  -9.18447372075268E-17
      0.00000000000000E+00   0.00000000000000E+00  -1.03622645886754E-18   9.64725340797792E-14   9.64714978533203E-14
     -1.73904646236740E-15  -1.46771747599451E+01  -1.46771747599451E+01   0.00000000000000E+00   0.00000000000000E+00
     -2.29595234929227E-17  -9.78091947833504E-14  -9.78321543068433E-14  -2.12969508908778E-15
      3.03543495198903E-01
      8.00000000000000E-01   8.00000000000000E-01   0.00000000000000E+00   0.00000000000000E+00   1.37366012677729E-15
     -7.36800025821717E-18   1.36629212651907E-15   3.85470408164743E-15   0.00000000000000E+00  -2.75534211622580E-16
      0.00000000000000E+00   0.00000000000000E+00  -1.03622202798322E-18   2.82112274336244E-13   2.82111238114216E-13
     -1.71470047172987E-15  -1.51771747599451E+01  -1.51771747599451E+01   0.00000000000000E+00   0.00000000000000E+00
     -2.29598793000131E-17  -2.83454570361434E-13  -2.83477530240734E-13  -2.14000360991756E-15
      3.13543495198903E-01
      8.00000000000000E-01   8.00000000000000E-01   0.00000000000000E+00   0.00000000000000E+00   1.37306162573149E-15
     -6.47023569820368E-18   1.36659139003329E-15   3.84089600199070E-15   0.00000000000000E+00  -8.26602634867741E-16
      0.00000000000000E+00   0.00000000000000E+00  -1.03621668145618E-18   7.95710346838482E-13   7.95709310621801E-13
     -1.69035954567463E-15  -1.56771747599451E+01  -1.56771747599451E+01   0.00000000000000E+00   0.00000000000000E+00
     -2.29602434960248E-17  -7.97052941768336E-13  -7.97075902011832E-13  -2.15053645631608E-15
      3.23543495198903E-01
      8.00000000000000E-01   8.00000000000000E-01   0.00000000000000E+00   0.00000000000000E+00   1.37151973295460E-15
      2.92255905914491E-17   1.40074532354605E-15   3.82733135528633E-15   0.00000000000000E+00  -2.20427369298064E-15
      0.00000000000000E+00   0.00000000000000E+00  -1.03621198496962E-18   2.16371855454433E-12   2.16371751833234E-12
     -1.66603862034158E-15  -1.61771747599451E+01  -1.61771747599451E+01   0.00000000000000E+00   0.00000000000000E+00
     -2.29606160884195E-17  -2.16509530303980E-12  -2.16511826365589E-12  -2.16129273494476E-15
      3.33543495198903E-01
      8.00000000000000E-01   8.00000000000000E-01   0.00000000000000E+00   0.00000000000000E+00   1.36813272200541E-15
     -3.12648051140431E-18   1.36500624149400E-15   3.81402902538527E-15   0.00000000000000E+00  -5.69437370686666E-15
      0.00000000000000E+00   0.00000000000000E+00  -1.03620594237369E-18   5.66827772862184E-12   5.66827669241589E-12
     -1.64175705814396E-15  -1.66771747599451E+01  -1.66771747599451E+01   0.00000000000000E+00   0.00000000000000E+00
     -2.29609970998268E-17  -5.66961873766029E-12  -5.66964169865738E-12  -2.17227196724131E-15
      3.43543495198903E-01
      8.00000000000000E-01   8.00000000000000E-01   0.00000000000000E+00   0.00000000000000E+00   1.36098592278733E-15
     -4.70661534780468E-18   1.35627930743952E-15   3.80101614464944E-15   0.00000000000000E+00  -1.43277790043742E-14
      0.00000000000000E+00   0.00000000000000E+00  -1.03619527768584E-18   1.42921494342987E-11   1.42921483981034E-11
     -1.61754151114068E-15  -1.71771747599451E+01  -1.71771747599451E+01   0.00000000000000E+00   0.00000000000000E+00
     -2.29613865872545E-17  -1.42934817160242E-11  -1.42935046774108E-11  -2.18347463350876E-15
      3.53543495198903E-01
      8.00000000000000E-01   8.00000000000000E-01   0.00000000000000E+00   0.00000000000000E+00   1.34634560641063E-15
      1.40892026858084E-17   1.36043480909644E-15   3.78833315170132E-15   0.00000000000000E+00  -3.46254659272376E-14
      0.00000000000000E+00   0.00000000000000E+00  -1.03617363628057E-18   3.46415006097485E-11   3.46414995735749E-11
     -1.59342989995234E-15  -1.76771747599451E+01  -1.76771747599451E+01   0.00000000000000E+00   0.00000000000000E+00
     -2.29617846803061E-17  -3.46428370465995E-11  -3.46428600083842E-11  -2.19490325174898E-15
      3.63543495198903E-01
      8.00000000000000E-01   8.00000000000000E-01   0.00000000000000E+00   0.00000000000000E+00   1.31787496470104E-15
     -8.06559639613310E-19   1.31706840506143E-15   3.77604147027527E-15   0.00000000000000E+00  -8.05478345310010E-14
      0.00000000000000E+00   0.00000000000000E+00  -1.03612722386054E-18   8.05767890156097E-11   8.05767879794825E-11
     -1.56947708271300E-15  -1.81771747599451E+01  -1.81771747599451E+01   0.00000000000000E+00   0.00000000000000E+00
     -2.29621916526354E-17  -8.05780820856954E-11  -8.05781050478871E-11  -2.20656438756227E-15
      3.73543495198903E-01
      8.00000000000000E-01   8.00000000000000E-01   0.00000000000000E+00   0.00000000000000E+00   1.26724342358971E-15
      3.60846194403000E-17   1.30332804303001E-15   3.76423451486696E-15   0.00000000000000E+00  -1.79464616503507E-13
      0.00000000000000E+00   0.00000000000000E+00  -1.03603318424272E-18   1.79443400057064E-10   1.79443399021031E-10
     -1.54576244466748E-15  -1.86771747599451E+01  -1.86771747599450E+01   0.00000000000000E+00   0.00000000000000E+00
     -2.29626080438586E-17  -1.79444679386465E-10  -1.79444702349073E-10  -2.21847207019948E-15
      3.83543495198903E-01
      8.00000000000000E-01   8.00000000000000E-01   0.00000000000000E+00   0.00000000000000E+00   1.18833695717454E-15
      1.35750456334419E-17   1.20191200280799E-15   3.75305135844182E-15   0.00000000000000E+00  -3.81431193622859E-13
      0.00000000000000E+00   0.00000000000000E+00  -1.03586577157500E-18   3.81421981995720E-10   3.81421980959854E-10
     -1.52239848478368E-15  -1.91771747599451E+01  -1.91771747599448E+01   0.00000000000000E+00   0.00000000000000E+00
     -2.29630348418425E-17  -3.81423159908820E-10  -3.81423182871855E-10  -2.23065287365814E-15
      3.93543495198903E-01
      8.00000000000000E-01   8.00000000000000E-01   0.00000000000000E+00   0.00000000000000E+00   1.08391040731309E-15
     -9.11609120303426E-18   1.07479431611005E-15   3.74268903248731E-15   0.00000000000000E+00  -7.70852879382772E-13
      0.00000000000000E+00   0.00000000000000E+00  -1.03561360647810E-18   7.70864371703962E-10   7.70864370668348E-10
     -1.49953702858390E-15  -1.96771747599451E+01  -1.96771747599444E+01   0.00000000000000E+00   0.00000000000000E+00
     -2.29634737029419E-17  -7.70865422499183E-10  -7.70865445462657E-10  -2.24315200390341E-15
      4.03543495198903E-01
      8.00000000000000E-01   8.00000000000000E-01   0.00000000000000E+00   0.00000000000000E+00   9.66733497748177E-16
     -1.37170143458501E-17   9.53016483402327E-16   3.73340446074589E-15   0.00000000000000E+00  -1.47511832429009E-12
      0.00000000000000E+00   0.00000000000000E+00  -1.03529031621218E-18   1.47511730475176E-09   1.47511730371647E-09
     -1.47736656278110E-15  -2.01771747599451E+01  -2.01771747599437E+01   0.00000000000000E+00   0.00000000000000E+00
     -2.29639271224404E-17  -1.47511823376902E-09  -1.47511825673294E-09  -2.25603789796478E-15
      4.13543495198903E-01
      8.00000000000000E-01   8.00000000000000E-01   0.00000000000000E+00   0.00000000000000E+00   8.51853024891301E-16
     -1.39422399034211E-17   8.37910784987880E-16   3.72549472381888E-15   0.00000000000000E+00  -2.66294631059503E-12
      0.00000000000000E+00   0.00000000000000E+00  -1.03492090562068E-18   2.66297411987940E-09   2.66297411884448E-09
     -1.45609365896916E-15  -2.06771747599451E+01  -2.06771747599425E+01   0.00000000000000E+00   0.00000000000000E+00
     -2.29643984029124E-17  -2.66297493379088E-09  -2.66297495675527E-09  -2.26940106484971E-15
      4.23543495198903E-01
      8.00000000000000E-01   8.00000000000000E-01   0.00000000000000E+00   0.00000000000000E+00   7.48967463553583E-16
     -2.11801644143611E-17   7.27787299139222E-16   3.71925215295173E-15   0.00000000000000E+00  -4.52647602853575E-12
      0.00000000000000E+00   0.00000000000000E+00  -1.03452114315789E-18   4.52645446709043E-09   4.52645446605591E-09
     -1.43590829035517E-15  -2.11771747599451E+01  -2.11771747599406E+01   0.00000000000000E+00   0.00000000000000E+00
     -2.29648913000389E-17  -4.52645517087836E-09  -4.52645519384325E-09  -2.28334386259656E-15
      4.33543495198903E-01
      8.00000000000000E-01   8.00000000000000E-01   0.00000000000000E+00   0.00000000000000E+00   6.60944276742121E-16
      1.86409550161504E-17   6.79585231758271E-16   3.71490885604551E-15   0.00000000000000E+00  -7.24930510779009E-12
      0.00000000000000E+00   0.00000000000000E+00  -1.03409114024203E-18   7.24928311434780E-09   7.24928311331371E-09
     -1.41694561219530E-15  -2.16771747599451E+01  -2.16771747599379E+01   0.00000000000000E+00   0.00000000000000E+00
     -2.29654094135542E-17  -7.24928376993353E-09  -7.24928379289894E-09  -2.29796324385021E-15
      4.43543495198903E-01
      8.00000000000000E-01   8.00000000000000E-01   0.00000000000000E+00   0.00000000000000E+00   5.86406991253891E-16
     -5.65890992129005E-18   5.80748081332601E-16   3.71259733588401E-15   0.00000000000000E+00  -1.09761808541971E-11
      0.00000000000000E+00   0.00000000000000E+00  -1.03362075283107E-18   1.09762242232946E-08   1.09762242222610E-08
     -1.39926306501881E-15  -2.21771747599451E+01  -2.21771747599342E+01   0.00000000000000E+00   0.00000000000000E+00
     -2.29659555980346E-17  -1.09762247800430E-08  -1.09762248030089E-08  -2.31333427086520E-15
      4.53543495198903E-01
      8.00000000000000E-01   8.00000000000000E-01   0.00000000000000E+00   0.00000000000000E+00   5.22907070341686E-16
      1.23089456547522E-17   5.35216015996438E-16   3.71234401288672E-15   0.00000000000000E+00  -1.57972029549574E-11
      0.00000000000000E+00   0.00000000000000E+00  -1.03309735577582E-18   1.57971832539036E-08   1.57971832528705E-08
     -1.38284215760877E-15  -2.26771747599451E+01  -2.26771747599294E+01   0.00000000000000E+00   0.00000000000000E+00
     -2.29665316602376E-17  -1.57971837651196E-08  -1.57971837880862E-08  -2.32950185527795E-15
      4.63543495198903E-01
      8.00000000000000E-01   8.00000000000000E-01   0.00000000000000E+00   0.00000000000000E+00   4.68515347789949E-16
      5.54207624061927E-18   4.74057424030569E-16   3.71409050210987E-15   0.00000000000000E+00  -2.17489256154795E-11