DF-ISE text

Info {
  version   = 1.0
  type      = xyplot
  datasets  = [
    "time"
    "Ntop OuterVoltage" "Ntop InnerVoltage" "Ntop QuasiFermiPotential" "Ntop DisplacementCurrent" "Ntop eCurrent"
    "Ntop hCurrent" "Ntop TotalCurrent" "Ntop Charge" "Ptop OuterVoltage" "Ptop InnerVoltage"
    "Ptop QuasiFermiPotential" "Ptop DisplacementCurrent" "Ptop eCurrent" "Ptop hCurrent" "Ptop TotalCurrent"
    "Ptop Charge" "Pbot OuterVoltage" "Pbot InnerVoltage" "Pbot QuasiFermiPotential" "Pbot DisplacementCurrent"
    "Pbot eCurrent" "Pbot hCurrent" "Pbot TotalCurrent" "Pbot Charge" ]
  functions = [
    Time
    OuterVoltage InnerVoltage QuasiFermiPotential DisplacementCurrent eCurrent
    hCurrent TotalCurrent Charge OuterVoltage InnerVoltage
    QuasiFermiPotential DisplacementCurrent eCurrent hCurrent TotalCurrent
    Charge OuterVoltage InnerVoltage QuasiFermiPotential DisplacementCurrent
    eCurrent hCurrent TotalCurrent Charge ]
}

Data {
      1.00000000000000E-03
      8.00000000000000E-01   8.00000000000000E-01   0.00000000000000E+00   0.00000000000000E+00   5.55143490109554E-16
      2.99324891271287E-19   5.55442815000826E-16   4.14345740767964E-15   0.00000000000000E+00   0.00000000000000E+00
      0.00000000000000E+00   0.00000000000000E+00  -1.03632574284579E-18  -6.15337928238321E-17  -6.25701185666779E-17
     -2.21787314122503E-15  -5.00000000000000E-02  -5.00000000000000E-02   0.00000000000000E+00   0.00000000000000E+00
     -2.29526236933686E-17  -4.69920072740779E-16  -4.92872696434148E-16  -1.92558426645461E-15
      2.91111111111111E-03
      8.00000000000000E-01   8.00000000000000E-01   0.00000000000000E+00   0.00000000000000E+00   5.86758768240271E-16
     -9.77561896671774E-19   5.85781206343599E-16   4.14433951888690E-15   0.00000000000000E+00   0.00000000000000E+00
      0.00000000000000E+00   0.00000000000000E+00  -1.03632574238507E-18  -6.14176553158770E-17  -6.24539810582621E-17
     -2.21787185647083E-15  -1.45555555555556E-01  -1.45555555555555E-01   0.00000000000000E+00   0.00000000000000E+00
     -2.29526526262901E-17  -5.00374572659048E-16  -5.23327225285338E-16  -1.92646766241608E-15
      6.56345679012346E-03
      8.00000000000000E-01   8.00000000000000E-01   0.00000000000000E+00   0.00000000000000E+00   6.43226363717680E-16
      3.08202690358243E-19   6.43534566408038E-16   4.14602180295257E-15   0.00000000000000E+00   0.00000000000000E+00
      0.00000000000000E+00   0.00000000000000E+00  -1.03632574095703E-18  -6.12095361286750E-17  -6.22458618696320E-17
     -2.21786787430549E-15  -3.28172839506173E-01  -3.28172839506173E-01   0.00000000000000E+00   0.00000000000000E+00
     -2.29527079326267E-17  -5.58335996605780E-16  -5.81288704538406E-16  -1.92815392864708E-15
      1.35434951989026E-02
      8.00000000000000E-01   8.00000000000000E-01   0.00000000000000E+00   0.00000000000000E+00   7.40357618773230E-16
     -3.23514946651229E-19   7.40034103826579E-16   4.14921925279951E-15   0.00000000000000E+00   0.00000000000000E+00
      0.00000000000000E+00   0.00000000000000E+00  -1.03632573440852E-18  -6.08806633029146E-17  -6.19169890373231E-17
     -2.21784961397560E-15  -6.77174759945130E-01  -6.77174759945130E-01   0.00000000000000E+00   0.00000000000000E+00
     -2.29528136391179E-17  -6.55164301150137E-16  -6.78117114789255E-16  -1.93136963882391E-15
      2.35434951989026E-02
      8.00000000000000E-01   8.00000000000000E-01   0.00000000000000E+00   0.00000000000000E+00   8.62020309766114E-16
      5.36717353341911E-19   8.62557027119456E-16   4.15372331957913E-15   0.00000000000000E+00   0.00000000000000E+00
      0.00000000000000E+00   0.00000000000000E+00  -1.03632570184966E-18  -6.05419945307403E-17  -6.15783202325899E-17
     -2.21775883834181E-15  -1.17717475994513E+00  -1.17717475994513E+00   0.00000000000000E+00   0.00000000000000E+00
     -2.29529651081569E-17  -7.78025741778708E-16  -8.00978706886865E-16  -1.93596448123732E-15
      3.35434951989026E-02
      8.00000000000000E-01   8.00000000000000E-01   0.00000000000000E+00   0.00000000000000E+00   9.66322656721192E-16
      2.99988109609676E-18   9.69322537817289E-16   4.15801748740735E-15   0.00000000000000E+00   0.00000000000000E+00
      0.00000000000000E+00   0.00000000000000E+00  -1.03632559144127E-18  -6.03562834280025E-17  -6.13926090194438E-17
     -2.21745102053121E-15  -1.67717475994513E+00  -1.67717475994513E+00   0.00000000000000E+00   0.00000000000000E+00
     -2.29531172123219E-17  -8.84976811585522E-16  -9.07929928797844E-16  -1.94056646687613E-15
      4.35434951989026E-02
      8.00000000000000E-01   8.00000000000000E-01   0.00000000000000E+00   0.00000000000000E+00   1.05060092444074E-15
     -3.53544407647714E-19   1.05024738003310E-15   4.16184338130093E-15   0.00000000000000E+00   0.00000000000000E+00
      0.00000000000000E+00   0.00000000000000E+00  -1.03632529035241E-18  -6.03737077964818E-17  -6.14100330868342E-17
     -2.21661062692516E-15  -2.17717475994513E+00  -2.17717475994513E+00   0.00000000000000E+00   0.00000000000000E+00
     -2.29532717781214E-17  -9.65884075168140E-16  -9.88837346946261E-16  -1.94523275437577E-15
      5.35434951989026E-02
      8.00000000000000E-01   8.00000000000000E-01   0.00000000000000E+00   0.00000000000000E+00   1.11777752682570E-15
      8.92290970254042E-20   1.11786675592272E-15   4.16476327648853E-15   0.00000000000000E+00   0.00000000000000E+00
      0.00000000000000E+00   0.00000000000000E+00  -1.03632462277336E-18  -6.06617650380615E-17  -6.16980896608349E-17
     -2.21474008738213E-15  -2.67717475994513E+00  -2.67717475994513E+00   0.00000000000000E+00   0.00000000000000E+00
     -2.29534307600944E-17  -1.03321523550180E-15  -1.05616866626189E-15  -1.95002318910640E-15
      6.35434951989026E-02
      8.00000000000000E-01   8.00000000000000E-01   0.00000000000000E+00   0.00000000000000E+00   1.17072533452583E-15
      1.08518886214222E-17   1.18157722314726E-15   4.16628091491960E-15   0.00000000000000E+00   0.00000000000000E+00
      0.00000000000000E+00   0.00000000000000E+00  -1.03632340695315E-18  -6.13439386197967E-17  -6.23802620267499E-17
     -2.21129719666596E-15  -3.17717475994513E+00  -3.17717475994513E+00   0.00000000000000E+00   0.00000000000000E+00
     -2.29535956756236E-17  -1.09624336544488E-15  -1.11919696112051E-15  -1.95498371825364E-15
      7.35434951989026E-02
      8.00000000000000E-01   8.00000000000000E-01   0.00000000000000E+00   0.00000000000000E+00   1.21221178418466E-15
      4.82384447761342E-18   1.21703562866228E-15   4.16610968729991E-15   0.00000000000000E+00   0.00000000000000E+00
      0.00000000000000E+00   0.00000000000000E+00  -1.03632156140506E-18  -6.25933818635294E-17  -6.36297034249344E-17
     -2.20596450682026E-15  -3.67717475994513E+00  -3.67717475994513E+00   0.00000000000000E+00   0.00000000000000E+00
     -2.29537675543811E-17  -1.13045215768296E-15  -1.15340592523734E-15  -1.96014518047965E-15
      8.35434951989026E-02
      8.00000000000000E-01   8.00000000000000E-01   0.00000000000000E+00   0.00000000000000E+00   1.24465341349220E-15
     -1.04031921211536E-18   1.24361309428008E-15   4.16435888622808E-15   0.00000000000000E+00   0.00000000000000E+00
      0.00000000000000E+00   0.00000000000000E+00  -1.03631916305028E-18  -6.45573320492767E-17  -6.55936512123270E-17
     -2.19883122840799E-15  -4.17717475994513E+00  -4.17717475994513E+00   0.00000000000000E+00   0.00000000000000E+00
     -2.29539470767793E-17  -1.15506549599098E-15  -1.17801944306776E-15  -1.96552765782009E-15
      9.35434951989026E-02
      8.00000000000000E-01   8.00000000000000E-01   0.00000000000000E+00   0.00000000000000E+00   1.27039538553490E-15
     -1.40001185763853E-18   1.26899537367726E-15   4.16137997815367E-15   0.00000000000000E+00   0.00000000000000E+00
      0.00000000000000E+00   0.00000000000000E+00  -1.03631636713748E-18  -6.72087910914941E-17  -6.82451074586316E-17
     -2.19023543077206E-15  -4.67717475994513E+00  -4.67717475994513E+00   0.00000000000000E+00   0.00000000000000E+00
     -2.29541347060582E-17  -1.17779613151258E-15  -1.20075026621863E-15  -1.97114454738161E-15
      1.03543495198903E-01
      8.00000000000000E-01   8.00000000000000E-01   0.00000000000000E+00   0.00000000000000E+00   1.29057566349514E-15
     -5.96633126125128E-18   1.28460933223389E-15   4.15749797602037E-15   0.00000000000000E+00   0.00000000000000E+00
      0.00000000000000E+00   0.00000000000000E+00  -1.03631330216896E-18  -7.00212639314462E-17  -7.10575772336152E-17
     -2.18049475709035E-15  -5.17717475994513E+00  -5.17717475994513E+00   0.00000000000000E+00   0.00000000000000E+00
     -2.29543307080269E-17  -1.19059742429225E-15  -1.21355175500027E-15  -1.97700321893002E-15
      1.13543495198903E-01
      8.00000000000000E-01   8.00000000000000E-01   0.00000000000000E+00   0.00000000000000E+00   1.30570737103422E-15
     -5.84748320140066E-18   1.29985988783282E-15   4.15292481142819E-15   0.00000000000000E+00   0.00000000000000E+00
      0.00000000000000E+00   0.00000000000000E+00  -1.03631004620634E-18  -7.21580525869113E-17  -7.31943626331176E-17
     -2.16981841669632E-15  -5.67717475994513E+00  -5.67717475994513E+00   0.00000000000000E+00   0.00000000000000E+00
     -2.29545351955367E-17  -1.20371099000417E-15  -1.22666552519971E-15  -1.98310639473186E-15
      1.23543495198903E-01
      8.00000000000000E-01   8.00000000000000E-01   0.00000000000000E+00   0.00000000000000E+00   1.31682627596786E-15
      2.01352653929706E-18   1.31883980250716E-15   4.14778589908906E-15   0.00000000000000E+00   0.00000000000000E+00
      0.00000000000000E+00   0.00000000000000E+00  -1.03630664337148E-18  -7.33664440368180E-17  -7.44027506801894E-17
     -2.15833186616967E-15  -6.17717475994513E+00  -6.17717475994513E+00   0.00000000000000E+00   0.00000000000000E+00
     -2.29547481904222E-17  -1.22148230363654E-15  -1.24443705182697E-15  -1.98945403291939E-15
      1.33543495198903E-01
      8.00000000000000E-01   8.00000000000000E-01   0.00000000000000E+00   0.00000000000000E+00   1.32529250154170E-15
      3.33563731423774E-18   1.32862813885594E-15   4.14215632277752E-15   0.00000000000000E+00   0.00000000000000E+00
      0.00000000000000E+00   0.00000000000000E+00  -1.03630311969631E-18  -7.39032549541397E-17  -7.49395580738360E-17
     -2.14611168276841E-15  -6.67717475994513E+00  -6.67717475994513E+00   0.00000000000000E+00   0.00000000000000E+00
     -2.29549696668715E-17  -1.23073361111523E-15  -1.25368858078210E-15  -1.99604464000911E-15
      1.43543495198903E-01
      8.00000000000000E-01   8.00000000000000E-01   0.00000000000000E+00   0.00000000000000E+00   1.33207793354614E-15
      6.97076163936370E-18   1.33904869518550E-15   4.13608322948466E-15   0.00000000000000E+00   0.00000000000000E+00
      0.00000000000000E+00   0.00000000000000E+00  -1.03629949186552E-18  -7.40284727096170E-17  -7.50647722014825E-17
     -2.13320723192309E-15  -7.17717475994513E+00  -7.17717475994513E+00   0.00000000000000E+00   0.00000000000000E+00
     -2.29551995754770E-17  -1.24102872340854E-15  -1.26398392298402E-15  -2.00287599756157E-15
      1.53543495198903E-01
      8.00000000000000E-01   8.00000000000000E-01   0.00000000000000E+00   0.00000000000000E+00   1.33772025947737E-15
      1.50479897962818E-18   1.33922505845700E-15   4.12959779450148E-15   0.00000000000000E+00   0.00000000000000E+00
      0.00000000000000E+00   0.00000000000000E+00  -1.03629577150422E-18  -7.39033246558889E-17  -7.49396204273931E-17
     -2.11965225015651E-15  -7.67717475994513E+00  -7.67717475994513E+00   0.00000000000000E+00   0.00000000000000E+00
     -2.29554378559033E-17  -1.24133000017370E-15  -1.26428543802961E-15  -2.00994554434497E-15
      1.63543495198903E-01
      8.00000000000000E-01   8.00000000000000E-01   0.00000000000000E+00   0.00000000000000E+00   1.34250886456554E-15
     -1.47242522120912E-17   1.32778461235345E-15   4.12272155701653E-15   0.00000000000000E+00   0.00000000000000E+00
      0.00000000000000E+00   0.00000000000000E+00  -1.03629196729571E-18  -7.36072116860763E-17  -7.46435036533720E-17
     -2.10547097728816E-15  -8.17717475994513E+00  -8.17717475994513E+00   0.00000000000000E+00   0.00000000000000E+00
     -2.29556844436218E-17  -1.23018542425646E-15  -1.25314110870008E-15  -2.01725057972838E-15
      1.73543495198903E-01
      8.00000000000000E-01   8.00000000000000E-01   0.00000000000000E+00   0.00000000000000E+00   1.34662324647469E-15
     -5.93340434102760E-18   1.34068984213366E-15   4.11546985833114E-15   0.00000000000000E+00   0.00000000000000E+00
      0.00000000000000E+00   0.00000000000000E+00  -1.03628808608352E-18  -7.31626856362243E-17  -7.41989737223078E-17
     -2.09068148418958E-15  -8.67717475994513E+00  -8.67717475994513E+00   0.00000000000000E+00   0.00000000000000E+00
     -2.29559392735805E-17  -1.24353492913777E-15  -1.26649086841136E-15  -2.02478837414157E-15
      1.83543495198903E-01
      8.00000000000000E-01   8.00000000000000E-01   0.00000000000000E+00   0.00000000000000E+00   1.35020207772324E-15
     -4.21198867195264E-18   1.34599008905128E-15   4.10785370172032E-15   0.00000000000000E+00   0.00000000000000E+00
      0.00000000000000E+00   0.00000000000000E+00  -1.03628413347859E-18  -7.25996438142981E-17  -7.36359279477767E-17
     -2.07529747406807E-15  -9.17717475994513E+00  -9.17717475994513E+00   0.00000000000000E+00   0.00000000000000E+00
     -2.29562022821404E-17  -1.24939795882137E-15  -1.27235416110351E-15  -2.03255622765225E-15
      1.93543495198903E-01
      8.00000000000000E-01   8.00000000000000E-01   0.00000000000000E+00   0.00000000000000E+00   1.35336452448163E-15
     -1.12599075885097E-17   1.34210461689312E-15   4.09988063836318E-15   0.00000000000000E+00   0.00000000000000E+00
      0.00000000000000E+00   0.00000000000000E+00  -1.03628011420461E-18  -7.19087129851143E-17  -7.29449930993190E-17
     -2.05932914281945E-15  -9.67717475994513E+00  -9.67717475994513E+00   0.00000000000000E+00   0.00000000000000E+00
     -2.29564734079202E-17  -1.24620315038588E-15  -1.26915962379381E-15  -2.04055149554374E-15
      2.03543495198903E-01
      8.00000000000000E-01   8.00000000000000E-01   0.00000000000000E+00   0.00000000000000E+00   1.35619844859352E-15
      9.36485381392063E-18   1.36556330240744E-15   4.09155495117860E-15   0.00000000000000E+00   0.00000000000000E+00
      0.00000000000000E+00   0.00000000000000E+00  -1.03627603229012E-18  -7.10230207972187E-17  -7.20592968295088E-17
     -2.04278336143486E-15  -1.01771747599451E+01  -1.01771747599451E+01   0.00000000000000E+00   0.00000000000000E+00
     -2.29567525918288E-17  -1.27054725298610E-15  -1.29350400557793E-15  -2.04877158974375E-15
      2.13543495198903E-01
      8.00000000000000E-01   8.00000000000000E-01   0.00000000000000E+00   0.00000000000000E+00   1.35876793921625E-15
     -6.67535947931096E-19   1.35810040326832E-15   4.08287726302126E-15   0.00000000000000E+00   0.00000000000000E+00
      0.00000000000000E+00   0.00000000000000E+00  -1.03627189116346E-18  -6.96918193882120E-17  -7.07280912793755E-17
     -2.02566330190725E-15  -1.06771747599451E+01  -1.06771747599451E+01   0.00000000000000E+00   0.00000000000000E+00
     -2.29570397764458E-17  -1.26441527221250E-15  -1.28737231198894E-15  -2.05721396111401E-15
      2.23543495198903E-01
      8.00000000000000E-01   8.00000000000000E-01   0.00000000000000E+00   0.00000000000000E+00   1.36114183906628E-15
     -2.45658772159308E-18   1.35868525134469E-15   4.07384364855537E-15   0.00000000000000E+00   0.00000000000000E+00
      0.00000000000000E+00   0.00000000000000E+00  -1.03626769368506E-18  -6.70595883399078E-17  -6.80958560335929E-17
     -2.00796758164369E-15  -1.11771747599451E+01  -1.11771747599451E+01   0.00000000000000E+00   0.00000000000000E+00
     -2.29573349048985E-17  -1.26763206040620E-15  -1.29058939531109E-15  -2.06587606691169E-15
      2.33543495198903E-01
      8.00000000000000E-01   8.00000000000000E-01   0.00000000000000E+00   0.00000000000000E+00   1.36337357620606E-15
      8.10218075815060E-18   1.37147575696421E-15   4.06444437496365E-15   0.00000000000000E+00   0.00000000000000E+00
      0.00000000000000E+00   0.00000000000000E+00  -1.03626344214694E-18  -6.00779010560741E-17  -6.11141644982211E-17
     -1.98968904514954E-15  -1.16771747599451E+01  -1.16771747599451E+01   0.00000000000000E+00   0.00000000000000E+00
     -2.29576379194391E-17  -1.28740395454655E-15  -1.31036159246599E-15  -2.07475532981412E-15
      2.43543495198903E-01
      8.00000000000000E-01   8.00000000000000E-01   0.00000000000000E+00   0.00000000000000E+00   1.36549540049178E-15
      2.24894275619791E-17   1.38798482805376E-15   4.05466263434514E-15   0.00000000000000E+00   0.00000000000000E+00
      0.00000000000000E+00   0.00000000000000E+00  -1.03625913828386E-18  -3.83003641815954E-17  -3.93366233198793E-17
     -1.97081353156687E-15  -1.21771747599451E+01  -1.21771747599451E+01   0.00000000000000E+00   0.00000000000000E+00
     -2.29579487602021E-17  -1.32569025597368E-15  -1.34864820473388E-15  -2.08384910277826E-15
      2.53543495198903E-01
      8.00000000000000E-01   8.00000000000000E-01   0.00000000000000E+00   0.00000000000000E+00   1.36752963279289E-15
     -9.03806883869823E-18   1.35849156395419E-15   4.04447432172711E-15   0.00000000000000E+00   0.00000000000000E+00
      0.00000000000000E+00   0.00000000000000E+00  -1.03625478338773E-18   3.38146428727094E-17   3.27783880893217E-17
     -1.95131964650081E-15  -1.26771747599451E+01  -1.26771747599451E+01   0.00000000000000E+00   0.00000000000000E+00
     -2.29582673653765E-17  -1.36831168467814E-15  -1.39126995204351E-15  -2.09315467522630E-15
      2.63543495198903E-01
      8.00000000000000E-01   8.00000000000000E-01   0.00000000000000E+00   0.00000000000000E+00   1.36949079580698E-15
     -2.76806662723000E-17   1.34181012953468E-15   4.03385145066591E-15   0.00000000000000E+00   0.00000000000000E+00
      0.00000000000000E+00   0.00000000000000E+00  -1.03625037871428E-18   2.74983157128004E-16   2.73946906749290E-16
     -1.93118205040227E-15  -1.31771747599451E+01  -1.31771747599451E+01   0.00000000000000E+00   0.00000000000000E+00
     -2.29585936755311E-17  -1.59279844260844E-15  -1.61575703628397E-15  -2.10266940026363E-15
      2.73543495198903E-01
      8.00000000000000E-01   8.00000000000000E-01   0.00000000000000E+00   0.00000000000000E+00   1.37138159164784E-15
     -8.84889030854322E-18   1.36253270133929E-15   4.02277389326496E-15   0.00000000000000E+00   0.00000000000000E+00
      0.00000000000000E+00   0.00000000000000E+00  -1.03624592646909E-18   1.07408049249143E-15   1.07304424656496E-15
     -1.91038281834376E-15  -1.36771747599451E+01  -1.36771747599451E+01   0.00000000000000E+00   0.00000000000000E+00
     -2.29589276466789E-17  -2.41261802025757E-15  -2.43557694790425E-15  -2.11239107492120E-15
      2.83543495198903E-01
      8.00000000000000E-01   8.00000000000000E-01   0.00000000000000E+00   0.00000000000000E+00   1.37318674315452E-15
      9.96290832956427E-18   1.38314965148408E-15   4.01125286296711E-15   0.00000000000000E+00   0.00000000000000E+00
      0.00000000000000E+00   0.00000000000000E+00  -1.03624143144548E-18   3.67563769509353E-15   3.67460145366208E-15
     -1.88893422081837E-15  -1.41771747599451E+01  -1.41771747599451E+01   0.00000000000000E+00   0.00000000000000E+00
     -2.29592692745594E-17  -5.03479183587161E-15  -5.05775110514617E-15  -2.12231864214874E-15
      2.93543495198903E-01
      8.00000000000000E-01   8.00000000000000E-01   0.00000000000000E+00   0.00000000000000E+00   1.37486807444396E-15
      1.23998492901964E-17   1.38726792373416E-15   3.99935648653975E-15   0.00000000000000E+00   0.00000000000000E+00
      0.00000000000000E+00   0.00000000000000E+00  -1.03623690233029E-18   1.19515164137970E-14   1.19504801768947E-14
     -1.86690361169387E-15  -1.46771747599451E+01  -1.46771747599451E+01   0.00000000000000E+00   0.00000000000000E+00
     -2.29596186185708E-17  -1.33147884820102E-14  -1.33377481006288E-14  -2.13245287484588E-15
      3.03543495198903E-01
      8.00000000000000E-01   8.00000000000000E-01   0.00000000000000E+00   0.00000000000000E+00   1.37636394658357E-15
     -8.94383634129452E-18   1.36742011024228E-15   3.98720995525832E-15   0.00000000000000E+00   0.00000000000000E+00
      0.00000000000000E+00   0.00000000000000E+00  -1.03623235045288E-18   3.75495032144079E-14   3.75484669820574E-14
     -1.84441372767026E-15  -1.51771747599451E+01  -1.51771747599451E+01   0.00000000000000E+00   0.00000000000000E+00
     -2.29599757971851E-17  -3.88929271165028E-14  -3.89158870923000E-14  -2.14279622758805E-15
      3.13543495198903E-01
      8.00000000000000E-01   8.00000000000000E-01   0.00000000000000E+00   0.00000000000000E+00   1.37758822862576E-15
     -3.05782158895599E-17   1.34701001273620E-15   3.97495904457126E-15   0.00000000000000E+00  -9.18447372075268E-17
      0.00000000000000E+00   0.00000000000000E+00  -1.03622778431804E-18   1.14221873736170E-13   1.14220837508385E-13
     -1.82160740816348E-15  -1.56771747599451E+01  -1.56771747599451E+01   0.00000000000000E+00   0.00000000000000E+00
     -2.29603409469263E-17  -1.15544887180174E-13  -1.15567847521121E-13  -2.15335163640779E-15
      3.23543495198903E-01
      8.00000000000000E-01   8.00000000000000E-01   0.00000000000000E+00   0.00000000000000E+00   1.37841172832283E-15
     -7.15724349650484E-18   1.37125448482633E-15   3.96272915267314E-15   0.00000000000000E+00  -3.67378948830107E-16
      0.00000000000000E+00   0.00000000000000E+00  -1.03622319697390E-18   3.35964240603924E-13   3.35963204380727E-13
     -1.79860784162210E-15  -1.61771747599451E+01  -1.61771747599451E+01   0.00000000000000E+00   0.00000000000000E+00
     -2.29607141806556E-17  -3.37311498151372E-13  -3.37334458865553E-13  -2.16412131105104E-15
      3.33543495198903E-01
      8.00000000000000E-01   8.00000000000000E-01   0.00000000000000E+00   0.00000000000000E+00   1.37860071495933E-15
     -1.00636195362995E-17   1.36853709542303E-15   3.95061046414121E-15   0.00000000000000E+00  -9.18447372075267E-16
      0.00000000000000E+00   0.00000000000000E+00  -1.03621852878983E-18   9.53934600924714E-13   9.53933564706185E-13
     -1.77550407185118E-15  -1.66771747599451E+01  -1.66771747599451E+01   0.00000000000000E+00   0.00000000000000E+00
     -2.29610955754725E-17  -9.55279140706030E-13  -9.55302101801605E-13  -2.17510639229003E-15
      3.43543495198903E-01
      8.00000000000000E-01   8.00000000000000E-01   0.00000000000000E+00   0.00000000000000E+00   1.37767010832580E-15
      1.81071196388376E-17   1.39577722796464E-15   3.93866487311113E-15   0.00000000000000E+00  -2.57165264181075E-15
      0.00000000000000E+00   0.00000000000000E+00  -1.03621294102747E-18   2.61091915855193E-12   2.61091812233899E-12
     -1.75235756596026E-15  -1.71771747599451E+01  -1.71771747599451E+01   0.00000000000000E+00   0.00000000000000E+00
     -2.29614851848039E-17  -2.61229093808176E-12  -2.61231389956695E-12  -2.18630730715088E-15
      3.53543495198903E-01
      8.00000000000000E-01   8.00000000000000E-01   0.00000000000000E+00   0.00000000000000E+00   1.37457473900232E-15
      1.51811359337892E-17   1.38975587493611E-15   3.92693908318990E-15   0.00000000000000E+00  -6.88835529056451E-15
      0.00000000000000E+00   0.00000000000000E+00  -1.03620742347894E-18   6.87917486317382E-12   6.87917382696640E-12
     -1.72921465783084E-15  -1.76771747599451E+01  -1.76771747599451E+01   0.00000000000000E+00   0.00000000000000E+00
     -2.29618830611595E-17  -6.88054062095830E-12  -6.88056358284136E-12  -2.19772442535905E-15
      3.63543495198903E-01
      8.00000000000000E-01   8.00000000000000E-01   0.00000000000000E+00   0.00000000000000E+00   1.36714035318503E-15
     -6.06252137761354E-18   1.36107783180742E-15   3.91547663134416E-15   0.00000000000000E+00  -1.74505000694301E-14
      0.00000000000000E+00   0.00000000000000E+00  -1.03619847697745E-18   1.74235230818354E-11   1.74235220456369E-11
     -1.70611765485209E-15  -1.81771747599451E+01  -1.81771747599451E+01   0.00000000000000E+00   0.00000000000000E+00
     -2.29622892883562E-17  -1.74248601611796E-11  -1.74248831234689E-11  -2.20935897649207E-15
      3.73543495198903E-01
      8.00000000000000E-01   8.00000000000000E-01   0.00000000000000E+00   0.00000000000000E+00   1.35125235918578E-15
     -2.96687412473170E-18   1.34828548506105E-15   3.90432860609468E-15   0.00000000000000E+00  -4.23404238526698E-14
      0.00000000000000E+00   0.00000000000000E+00  -1.03618162209468E-18   4.23509084695693E-11   4.23509074333877E-11
     -1.68311409019475E-15  -1.86771747599451E+01  -1.86771747599451E+01   0.00000000000000E+00   0.00000000000000E+00
     -2.29627040335197E-17  -4.23522327561690E-11  -4.23522557188730E-11  -2.22121451589993E-15
      3.83543495198903E-01
      8.00000000000000E-01   8.00000000000000E-01   0.00000000000000E+00   0.00000000000000E+00   1.32040372365226E-15
     -1.54032314598542E-17   1.30500049219240E-15   3.89356494884819E-15   0.00000000000000E+00  -9.85494030236762E-14
      0.00000000000000E+00   0.00000000000000E+00  -1.03614745787742E-18   9.85770811063437E-11   9.85770800701962E-11
     -1.66026552656715E-15  -1.91771747599451E+01  -1.91771747599450E+01   0.00000000000000E+00   0.00000000000000E+00
     -2.29631276362071E-17  -9.85783621075618E-11  -9.85783850706895E-11  -2.23329942228103E-15
      3.93543495198903E-01
      8.00000000000000E-01   8.00000000000000E-01   0.00000000000000E+00   0.00000000000000E+00   1.26738977230537E-15
     -1.04557829928345E-19   1.26728521447544E-15   3.88328774602218E-15   0.00000000000000E+00  -2.19141542977159E-13
      0.00000000000000E+00   0.00000000000000E+00  -1.03608168367588E-18   2.19095859073730E-10   2.19095858037648E-10
     -1.63765681986413E-15  -1.96771747599451E+01  -1.96771747599449E+01   0.00000000000000E+00   0.00000000000000E+00
     -2.29635607529086E-17  -2.19097102359298E-10  -2.19097125322859E-10  -2.24563092615806E-15
      4.03543495198903E-01
      8.00000000000000E-01   8.00000000000000E-01   0.00000000000000E+00   0.00000000000000E+00   1.18962918088742E-15
      1.53506109660493E-17   1.20497979185347E-15   3.87364561608913E-15   0.00000000000000E+00  -4.63264854474765E-13
      0.00000000000000E+00   0.00000000000000E+00  -1.03597107778834E-18   4.63284288484425E-10   4.63284287448454E-10
     -1.61540488706290E-15  -2.01771747599451E+01  -2.01771747599447E+01   0.00000000000000E+00   0.00000000000000E+00
     -2.29640045598564E-17  -4.63285469464238E-10  -4.63285492428242E-10  -2.25824072902622E-15
      4.13543495198903E-01
      8.00000000000000E-01   8.00000000000000E-01   0.00000000000000E+00   0.00000000000000E+00   1.09399778589091E-15
      3.89493057302727E-17   1.13294709162118E-15   3.86484391217222E-15   0.00000000000000E+00  -9.27999224744850E-13
      0.00000000000000E+00   0.00000000000000E+00  -1.03581319041007E-18   9.28007766623231E-10   9.28007765587418E-10
     -1.59366295925101E-15  -2.06771747599451E+01  -2.06771747599442E+01   0.00000000000000E+00   0.00000000000000E+00
     -2.29644609702882E-17  -9.28008875570047E-10  -9.28008898534508E-10  -2.27118095292121E-15
      4.23543495198903E-01
      8.00000000000000E-01   8.00000000000000E-01   0.00000000000000E+00   0.00000000000000E+00   9.93383268326570E-16
      8.81702804610004E-18   1.00220029637267E-15   3.85714058954474E-15   0.00000000000000E+00  -1.75340787802889E-12
      0.00000000000000E+00   0.00000000000000E+00  -1.03561691032830E-18   1.75343489577251E-09   1.75343489473690E-09
     -1.57261352179683E-15  -2.11771747599451E+01  -2.11771747599434E+01   0.00000000000000E+00   0.00000000000000E+00
     -2.29649327470378E-17  -1.75343587397225E-09  -1.75343589693719E-09  -2.28452706774791E-15
      4.33543495198903E-01
      8.00000000000000E-01   8.00000000000000E-01   0.00000000000000E+00   0.00000000000000E+00   8.98220006456928E-16
     -7.26483401100199E-18   8.90955172445926E-16   3.85081824786874E-15   0.00000000000000E+00  -3.11537348607931E-12
      0.00000000000000E+00   0.00000000000000E+00  -1.03539142566990E-18   3.11533709225342E-09   3.11533709121802E-09
     -1.55244488587193E-15  -2.16771747599451E+01  -2.16771747599420E+01   0.00000000000000E+00   0.00000000000000E+00
     -2.29654233507645E-17  -3.11533795920783E-09  -3.11533798217325E-09  -2.29837336199680E-15
      4.43543495198903E-01
      8.00000000000000E-01   8.00000000000000E-01   0.00000000000000E+00   0.00000000000000E+00   8.13476587604465E-16
     -7.17896978518914E-19   8.12758690625946E-16   3.84613531378517E-15   0.00000000000000E+00  -5.20070824437620E-12
      0.00000000000000E+00   0.00000000000000E+00  -1.03513898160879E-18   5.20068530444993E-09   5.20068530341479E-09
     -1.53331592470961E-15  -2.21771747599451E+01  -2.21771747599399E+01   0.00000000000000E+00   0.00000000000000E+00
     -2.29659364639008E-17  -5.20068609320754E-09  -5.20068611617348E-09  -2.31281938907556E-15
      4.53543495198903E-01
      8.00000000000000E-01   8.00000000000000E-01   0.00000000000000E+00   0.00000000000000E+00   7.40494424093390E-16
     -1.21535512062627E-18   7.39279068972764E-16   3.84327706016668E-15   0.00000000000000E+00  -8.17510005884196E-12
      0.00000000000000E+00   0.00000000000000E+00  -1.03485603744815E-18   8.17512778598634E-09   8.17512778495149E-09
     -1.51532481049211E-15  -2.26771747599451E+01  -2.26771747599370E+01   0.00000000000000E+00   0.00000000000000E+00
     -2.29664753595138E-17  -8.17512850126386E-09  -8.17512852423034E-09  -2.32795224967456E-15
      4.63543495198903E-01
      8.00000000000000E-01   8.00000000000000E-01   0.00000000000000E+00   0.00000000000000E+00   6.78477416847581E-16
     -9.18530679514552E-18   6.69292110052435E-16   3.84233058681348E-15   0.00000000000000E+00  -1.21580389325836E-11