DF-ISE text

Info {
  version   = 1.0
  type      = xyplot
  datasets  = [
    "time"
    "Ntop OuterVoltage" "Ntop InnerVoltage" "Ntop QuasiFermiPotential" "Ntop DisplacementCurrent" "Ntop eCurrent"
    "Ntop hCurrent" "Ntop TotalCurrent" "Ntop Charge" "Ptop OuterVoltage" "Ptop InnerVoltage"
    "Ptop QuasiFermiPotential" "Ptop DisplacementCurrent" "Ptop eCurrent" "Ptop hCurrent" "Ptop TotalCurrent"
    "Ptop Charge" "Pbot OuterVoltage" "Pbot InnerVoltage" "Pbot QuasiFermiPotential" "Pbot DisplacementCurrent"
    "Pbot eCurrent" "Pbot hCurrent" "Pbot TotalCurrent" "Pbot Charge" ]
  functions = [
    Time
    OuterVoltage InnerVoltage QuasiFermiPotential DisplacementCurrent eCurrent
    hCurrent TotalCurrent Charge OuterVoltage InnerVoltage
    QuasiFermiPotential DisplacementCurrent eCurrent hCurrent TotalCurrent
    Charge OuterVoltage InnerVoltage QuasiFermiPotential DisplacementCurrent
    eCurrent hCurrent TotalCurrent Charge ]
}

Data {
      1.00000000000000E-03
      8.00000000000000E-01   8.00000000000000E-01   0.00000000000000E+00   0.00000000000000E+00   5.57123158965060E-16
     -7.43787126705478E-20   5.57048780252389E-16   3.69633696577729E-15   0.00000000000000E+00   0.00000000000000E+00
      0.00000000000000E+00   0.00000000000000E+00  -1.03632221183799E-18  -6.36991590180567E-17  -6.47354812298947E-17
     -1.77075277216141E-15  -5.00000000000000E-02  -5.00000000000000E-02   0.00000000000000E+00   0.00000000000000E+00
     -2.29526236909843E-17  -4.69360675331510E-16  -4.92313299022495E-16  -1.92558419361588E-15
      2.91111111111111E-03
      8.00000000000000E-01   8.00000000000000E-01   0.00000000000000E+00   0.00000000000000E+00   5.88742469914785E-16
      6.96857901991776E-19   5.89439327816777E-16   3.69721841577807E-15   0.00000000000000E+00   0.00000000000000E+00
      0.00000000000000E+00   0.00000000000000E+00  -1.03632221124474E-18  -6.35697369792521E-17  -6.46060591904968E-17
     -1.77075085915268E-15  -1.45555555555556E-01  -1.45555555555555E-01   0.00000000000000E+00   0.00000000000000E+00
     -2.29526526228236E-17  -5.01880616003457E-16  -5.24833268626281E-16  -1.92646755662539E-15
      6.56345679012346E-03
      8.00000000000000E-01   8.00000000000000E-01   0.00000000000000E+00   0.00000000000000E+00   6.45222503317478E-16
     -3.91232315779600E-19   6.44831271001698E-16   3.69889864866643E-15   0.00000000000000E+00   0.00000000000000E+00
      0.00000000000000E+00   0.00000000000000E+00  -1.03632220940533E-18  -6.33560915740279E-17  -6.43924137834333E-17
     -1.77074492768406E-15  -3.28172839506173E-01  -3.28172839506173E-01   0.00000000000000E+00   0.00000000000000E+00
     -2.29527079258099E-17  -5.57486149292455E-16  -5.80438857218265E-16  -1.92815372098236E-15
      1.35434951989026E-02
      8.00000000000000E-01   8.00000000000000E-01   0.00000000000000E+00   0.00000000000000E+00   7.42409941198675E-16
      1.60000464011161E-18   7.44009945838787E-16   3.70208666204825E-15   0.00000000000000E+00   0.00000000000000E+00
      0.00000000000000E+00   0.00000000000000E+00  -1.03632220095964E-18  -6.29847518224109E-17  -6.40210740233705E-17
     -1.77071769504770E-15  -6.77174759945130E-01  -6.77174759945130E-01   0.00000000000000E+00   0.00000000000000E+00
     -2.29528136170054E-17  -6.57036058198410E-16  -6.79988871815416E-16  -1.93136896700053E-15
      2.35434951989026E-02
      8.00000000000000E-01   8.00000000000000E-01   0.00000000000000E+00   0.00000000000000E+00   8.64339275251609E-16
     -5.46219071490945E-19   8.63793056180118E-16   3.70654322605968E-15   0.00000000000000E+00   0.00000000000000E+00
      0.00000000000000E+00   0.00000000000000E+00  -1.03632215876246E-18  -6.26063631392080E-17  -6.36426852979705E-17
     -1.77058167306840E-15  -1.17717475994513E+00  -1.17717475994513E+00   0.00000000000000E+00   0.00000000000000E+00
     -2.29529650114902E-17  -7.77197405870657E-16  -8.00150370882147E-16  -1.93596155299127E-15
      3.35434951989026E-02
      8.00000000000000E-01   8.00000000000000E-01   0.00000000000000E+00   0.00000000000000E+00   9.69428393842450E-16
      2.89663303411431E-18   9.72325026876564E-16   3.71067115377699E-15   0.00000000000000E+00   0.00000000000000E+00
      0.00000000000000E+00   0.00000000000000E+00  -1.03632201387440E-18  -6.24336004388667E-17  -6.34699224527411E-17
     -1.77011476481704E-15  -1.67717475994513E+00  -1.67717475994513E+00   0.00000000000000E+00   0.00000000000000E+00
     -2.29531168788470E-17  -8.85901987544975E-16  -9.08855104423822E-16  -1.94055638895995E-15
      4.35434951989026E-02
      8.00000000000000E-01   8.00000000000000E-01   0.00000000000000E+00   0.00000000000000E+00   1.05541392037166E-15
      7.39759606301038E-18   1.06281151643467E-15   3.71401717225465E-15   0.00000000000000E+00   0.00000000000000E+00
      0.00000000000000E+00   0.00000000000000E+00  -1.03632161009309E-18  -6.25246390374196E-17  -6.35609606475127E-17
     -1.76881217309916E-15  -2.17717475994513E+00  -2.17717475994513E+00   0.00000000000000E+00   0.00000000000000E+00
     -2.29532708578557E-17  -9.76297284929299E-16  -9.99250555787155E-16  -1.94520499915548E-15
      5.35434951989026E-02
      8.00000000000000E-01   8.00000000000000E-01   0.00000000000000E+00   0.00000000000000E+00   1.12558698364237E-15
     -2.05369181818103E-18   1.12353329182419E-15   3.71580336184988E-15   0.00000000000000E+00   0.00000000000000E+00
      0.00000000000000E+00   0.00000000000000E+00  -1.03632069463590E-18  -6.30795245552994E-17  -6.41158452499353E-17
     -1.76584293115396E-15  -2.67717475994513E+00  -2.67717475994513E+00   0.00000000000000E+00   0.00000000000000E+00
     -2.29534286754693E-17  -1.03646401789879E-15  -1.05941744657425E-15  -1.94996043069592E-15
      6.35434951989026E-02
      8.00000000000000E-01   8.00000000000000E-01   0.00000000000000E+00   0.00000000000000E+00   1.18264491795844E-15
      1.04369053780269E-17   1.19308182333647E-15   3.71521022367898E-15   0.00000000000000E+00   0.00000000000000E+00
      0.00000000000000E+00   0.00000000000000E+00  -1.03631902680568E-18  -6.43391877239382E-17  -6.53755067507439E-17
     -1.76034563772509E-15  -3.17717475994513E+00  -3.17717475994513E+00   0.00000000000000E+00   0.00000000000000E+00
     -2.29535917117776E-17  -1.10475272487395E-15  -1.12770631658572E-15  -1.95486458595389E-15
      7.35434951989026E-02
      8.00000000000000E-01   8.00000000000000E-01   0.00000000000000E+00   0.00000000000000E+00   1.22804767568299E-15
      6.21288492932747E-18   1.23426056061232E-15   3.71202660062829E-15   0.00000000000000E+00   0.00000000000000E+00
      0.00000000000000E+00   0.00000000000000E+00  -1.03631659046070E-18  -6.66402775542388E-17  -6.76765941446995E-17
     -1.75207506612478E-15  -3.67717475994513E+00  -3.67717475994513E+00   0.00000000000000E+00   0.00000000000000E+00
     -2.29537611009490E-17  -1.14363020536667E-15  -1.16658396646762E-15  -1.95995153450351E-15
      8.35434951989026E-02
      8.00000000000000E-01   8.00000000000000E-01   0.00000000000000E+00   0.00000000000000E+00   1.26346419630215E-15
      9.08626580420518E-18   1.27255046210635E-15   3.70680439844680E-15   0.00000000000000E+00   0.00000000000000E+00
      0.00000000000000E+00   0.00000000000000E+00  -1.03631360493816E-18  -7.00217150568825E-17  -7.10580286618207E-17
     -1.74155471998000E-15  -4.17717475994513E+00  -4.17717475994513E+00   0.00000000000000E+00   0.00000000000000E+00
     -2.29539377985157E-17  -1.17853849564601E-15  -1.20149243344453E-15  -1.96524967846679E-15
      9.35434951989026E-02
      8.00000000000000E-01   8.00000000000000E-01   0.00000000000000E+00   0.00000000000000E+00   1.29021470138783E-15
     -2.83636106105314E-18   1.28737834032678E-15   3.70022834690437E-15   0.00000000000000E+00   0.00000000000000E+00
      0.00000000000000E+00   0.00000000000000E+00  -1.03631029513797E-18  -7.38016904718031E-17  -7.48380007669411E-17
     -1.72945060361344E-15  -4.67717475994513E+00  -4.67717475994513E+00   0.00000000000000E+00   0.00000000000000E+00
     -2.29541224444991E-17  -1.18958621711534E-15  -1.21254033955984E-15  -1.97077774329092E-15
      1.03543495198903E-01
      8.00000000000000E-01   8.00000000000000E-01   0.00000000000000E+00   0.00000000000000E+00   1.30902652604040E-15
     -4.63858250874892E-18   1.30438794353166E-15   3.69274327680133E-15   0.00000000000000E+00   0.00000000000000E+00
      0.00000000000000E+00   0.00000000000000E+00  -1.03630678956473E-18  -7.65896912842984E-17  -7.76259980738631E-17
     -1.71619874547708E-15  -5.17717475994513E+00  -5.17717475994513E+00   0.00000000000000E+00   0.00000000000000E+00
     -2.29543153520650E-17  -1.20380763010573E-15  -1.22676194545779E-15  -1.97654453132425E-15
      1.13543495198903E-01
      8.00000000000000E-01   8.00000000000000E-01   0.00000000000000E+00   0.00000000000000E+00   1.32165380325836E-15
      2.53222349356643E-18   1.32418602675193E-15   3.68459137136135E-15   0.00000000000000E+00   0.00000000000000E+00
      0.00000000000000E+00   0.00000000000000E+00  -1.03630315046605E-18  -7.79166859275422E-17  -7.89529890780083E-17
     -1.70203846184176E-15  -5.67717475994513E+00  -5.67717475994513E+00   0.00000000000000E+00   0.00000000000000E+00
     -2.29545166384576E-17  -1.22227852103546E-15  -1.24523303767392E-15  -1.98255290951960E-15
      1.23543495198903E-01
      8.00000000000000E-01   8.00000000000000E-01   0.00000000000000E+00   0.00000000000000E+00   1.33046674506500E-15
     -3.54665446663019E-18   1.32692009059837E-15   3.67590576389081E-15   0.00000000000000E+00   0.00000000000000E+00
      0.00000000000000E+00   0.00000000000000E+00  -1.03629940916453E-18  -7.82301855948973E-17  -7.92664850040618E-17
     -1.68710289234241E-15  -6.17717475994513E+00  -6.17717475994513E+00   0.00000000000000E+00   0.00000000000000E+00
     -2.29547263262140E-17  -1.22469887926810E-15  -1.24765360559431E-15  -1.98880287154840E-15
      1.33543495198903E-01
      8.00000000000000E-01   8.00000000000000E-01   0.00000000000000E+00   0.00000000000000E+00   1.33710419014596E-15
     -6.09844298059491E-18   1.33100574716537E-15   3.66676395513377E-15   0.00000000000000E+00   0.00000000000000E+00
      0.00000000000000E+00   0.00000000000000E+00  -1.03629558323426E-18  -7.80020912982584E-17  -7.90383868814926E-17
     -1.67147089266050E-15  -6.67717475994513E+00  -6.67717475994513E+00   0.00000000000000E+00   0.00000000000000E+00
     -2.29549443936533E-17  -1.22901241589022E-15  -1.25196736028387E-15  -1.99529306247326E-15
      1.43543495198903E-01
      8.00000000000000E-01   8.00000000000000E-01   0.00000000000000E+00   0.00000000000000E+00   1.34242269648148E-15
      1.99128049818220E-17   1.36233550146330E-15   3.65721290331216E-15   0.00000000000000E+00   0.00000000000000E+00
      0.00000000000000E+00   0.00000000000000E+00  -1.03629168366919E-18  -7.74570786100399E-17  -7.84933702937091E-17
     -1.65519142553835E-15  -7.17717475994513E+00  -7.17717475994513E+00   0.00000000000000E+00   0.00000000000000E+00
     -2.29551707980273E-17  -1.26088696037156E-15  -1.28384213116959E-15  -2.00202147777381E-15
      1.53543495198903E-01
      8.00000000000000E-01   8.00000000000000E-01   0.00000000000000E+00   0.00000000000000E+00   1.34683965713454E-15
     -1.22573071006931E-17   1.33458235003385E-15   3.64728073625582E-15   0.00000000000000E+00   0.00000000000000E+00
      0.00000000000000E+00   0.00000000000000E+00  -1.03628771793979E-18  -7.67157608871960E-17  -7.77520486051357E-17
     -1.63829494484593E-15  -7.67717475994513E+00  -7.67717475994513E+00   0.00000000000000E+00   0.00000000000000E+00
     -2.29554054863851E-17  -1.23387489594232E-15  -1.25683030142871E-15  -2.00898579140988E-15
      1.63543495198903E-01
      8.00000000000000E-01   8.00000000000000E-01   0.00000000000000E+00   0.00000000000000E+00   1.35057060895174E-15
     -1.94234039678968E-17   1.33114720498384E-15   3.63698239413229E-15   0.00000000000000E+00   0.00000000000000E+00
      0.00000000000000E+00   0.00000000000000E+00  -1.03628369140625E-18  -7.58191154446823E-17  -7.68553991360886E-17
     -1.62079887812157E-15  -8.17717475994513E+00  -8.17717475994513E+00   0.00000000000000E+00   0.00000000000000E+00
     -2.29556484008634E-17  -1.23133615744689E-15  -1.25429180584775E-15  -2.01618351601072E-15
      1.73543495198903E-01
      8.00000000000000E-01   8.00000000000000E-01   0.00000000000000E+00   0.00000000000000E+00   1.35375290417687E-15
      3.03163025547822E-18   1.35678453443235E-15   3.62632233744855E-15   0.00000000000000E+00   0.00000000000000E+00
      0.00000000000000E+00   0.00000000000000E+00  -1.03627960803405E-18  -7.47993373282457E-17  -7.58356169362798E-17
     -1.60271025660780E-15  -8.67717475994513E+00  -8.67717475994513E+00   0.00000000000000E+00   0.00000000000000E+00
     -2.29558994812528E-17  -1.25799301801482E-15  -1.28094891749607E-15  -2.02361208084076E-15
      1.83543495198903E-01
      8.00000000000000E-01   8.00000000000000E-01   0.00000000000000E+00   0.00000000000000E+00   1.35648528978910E-15
     -1.29185223494871E-17   1.34356676743961E-15   3.61529575828477E-15   0.00000000000000E+00   0.00000000000000E+00
      0.00000000000000E+00   0.00000000000000E+00  -1.03627547079197E-18  -7.36182065321758E-17  -7.46544820029677E-17
     -1.58402689091024E-15  -9.17717475994513E+00  -9.17717475994513E+00   0.00000000000000E+00   0.00000000000000E+00
     -2.29561586661415E-17  -1.24595612677050E-15  -1.26891228543664E-15  -2.03126886737453E-15
      1.93543495198903E-01
      8.00000000000000E-01   8.00000000000000E-01   0.00000000000000E+00   0.00000000000000E+00   1.35884599457122E-15
     -4.49031605377575E-18   1.35435567851744E-15   3.60388930363155E-15   0.00000000000000E+00   0.00000000000000E+00
      0.00000000000000E+00   0.00000000000000E+00  -1.03627128192443E-18  -7.21655896489980E-17  -7.32018609309224E-17
     -1.56473807125623E-15  -9.67717475994513E+00  -9.67717475994513E+00   0.00000000000000E+00   0.00000000000000E+00
     -2.29564258936629E-17  -1.25819739169285E-15  -1.28115381758652E-15  -2.03915123237533E-15
      2.03543495198903E-01
      8.00000000000000E-01   8.00000000000000E-01   0.00000000000000E+00   0.00000000000000E+00   1.36092347960040E-15
     -4.72891665159721E-18   1.35619456294880E-15   3.59208269563731E-15   0.00000000000000E+00   0.00000000000000E+00
      0.00000000000000E+00   0.00000000000000E+00  -1.03626704325505E-18  -6.99481674944511E-17  -7.09844345377061E-17
     -1.54482613568660E-15  -1.01771747599451E+01  -1.01771747599451E+01   0.00000000000000E+00   0.00000000000000E+00
     -2.29567011032263E-17  -1.26225342730787E-15  -1.28521012841110E-15  -2.04725655995071E-15
      2.13543495198903E-01
      8.00000000000000E-01   8.00000000000000E-01   0.00000000000000E+00   0.00000000000000E+00   1.36278962334916E-15
     -1.10802880187366E-17   1.35170933533043E-15   3.57985369000542E-15   0.00000000000000E+00   0.00000000000000E+00
      0.00000000000000E+00   0.00000000000000E+00  -1.03626275671114E-18  -6.51831388375884E-17  -6.62194015942996E-17
     -1.52427127941471E-15  -1.06771747599451E+01  -1.06771747599451E+01   0.00000000000000E+00   0.00000000000000E+00
     -2.29569842405717E-17  -1.26253294949556E-15  -1.28548993373613E-15  -2.05558241059072E-15
      2.23543495198903E-01
      8.00000000000000E-01   8.00000000000000E-01   0.00000000000000E+00   0.00000000000000E+00   1.36449351400759E-15
     -4.87731830083161E-18   1.35961619570676E-15   3.56718981289453E-15   0.00000000000000E+00   0.00000000000000E+00
      0.00000000000000E+00   0.00000000000000E+00  -1.03625842526491E-18  -5.15316854486274E-17  -5.25679438738923E-17
     -1.50306296075031E-15  -1.11771747599451E+01  -1.11771747599451E+01   0.00000000000000E+00   0.00000000000000E+00
     -2.29572752690655E-17  -1.28409097656380E-15  -1.30704825183287E-15  -2.06412685214422E-15
      2.33543495198903E-01
      8.00000000000000E-01   8.00000000000000E-01   0.00000000000000E+00   0.00000000000000E+00   1.36606803364268E-15
      7.27163482161341E-18   1.37333966846429E-15   3.55410798083100E-15   0.00000000000000E+00   0.00000000000000E+00
      0.00000000000000E+00   0.00000000000000E+00  -1.03625405422896E-18  -6.58339761161078E-18  -7.61965166583973E-18
     -1.48121900563202E-15  -1.16771747599451E+01  -1.16771747599451E+01   0.00000000000000E+00   0.00000000000000E+00
     -2.29575741874214E-17  -1.34276244261103E-15  -1.36572001679845E-15  -2.07288897519897E-15
      2.43543495198903E-01
      8.00000000000000E-01   8.00000000000000E-01   0.00000000000000E+00   0.00000000000000E+00   1.36752820527689E-15
     -3.75471195166628E-18   1.36377349332522E-15   3.54067283157618E-15   0.00000000000000E+00   0.00000000000000E+00
      0.00000000000000E+00   0.00000000000000E+00  -1.03624965211162E-18   1.46455797264908E-16   1.45419547612797E-16
     -1.45880352127637E-15  -1.21771747599451E+01  -1.21771747599451E+01   0.00000000000000E+00   0.00000000000000E+00
     -2.29578810442224E-17  -1.48623515989379E-15  -1.50919304093802E-15  -2.08186931029980E-15
      2.53543495198903E-01
      8.00000000000000E-01   8.00000000000000E-01   0.00000000000000E+00   0.00000000000000E+00   1.36887084684036E-15
     -4.07588256669022E-18   1.36479496427367E-15   3.52699428792759E-15   0.00000000000000E+00   0.00000000000000E+00
      0.00000000000000E+00   0.00000000000000E+00  -1.03624522979098E-18   6.63516315846806E-16   6.62480070617015E-16
     -1.43592465456516E-15  -1.26771747599451E+01  -1.26771747599451E+01   0.00000000000000E+00   0.00000000000000E+00
     -2.29581959316591E-17  -2.00431683895903E-15  -2.02727503489069E-15  -2.09106963336243E-15
      2.63543495198903E-01
      8.00000000000000E-01   8.00000000000000E-01   0.00000000000000E+00   0.00000000000000E+00   1.37007870661500E-15
     -2.47116036903697E-17   1.34536710292463E-15   3.51319868886598E-15   0.00000000000000E+00   0.00000000000000E+00
      0.00000000000000E+00   0.00000000000000E+00  -1.03624079807849E-18   2.36942007051416E-15   2.36838382971608E-15
     -1.41270660076404E-15  -1.31771747599451E+01  -1.31771747599451E+01   0.00000000000000E+00   0.00000000000000E+00
     -2.29585189557703E-17  -3.69079241368495E-15  -3.71375093264072E-15  -2.10049208810193E-15
      2.73543495198903E-01
      8.00000000000000E-01   8.00000000000000E-01   0.00000000000000E+00   0.00000000000000E+00   1.37112580924930E-15
     -4.96915715920429E-18   1.36615665209009E-15   3.49939647555602E-15   0.00000000000000E+00   0.00000000000000E+00
      0.00000000000000E+00   0.00000000000000E+00  -1.03623636549434E-18   7.83119274717929E-15   7.83015651081380E-15
     -1.38925817506774E-15  -1.36771747599451E+01  -1.36771747599451E+01   0.00000000000000E+00   0.00000000000000E+00
     -2.29588502061347E-17  -9.17335431269773E-15  -9.19631316290387E-15  -2.11013830048828E-15
      2.83543495198903E-01
      8.00000000000000E-01   8.00000000000000E-01   0.00000000000000E+00   0.00000000000000E+00   1.37197937557225E-15
      1.02176086279341E-17   1.38219698420018E-15   3.48566833558771E-15   0.00000000000000E+00   0.00000000000000E+00
      0.00000000000000E+00   0.00000000000000E+00  -1.03623193720892E-18   2.47512938919912E-14   2.47502576600540E-14
     -1.36565929575646E-15  -1.41771747599451E+01  -1.41771747599451E+01   0.00000000000000E+00   0.00000000000000E+00
     -2.29591897440654E-17  -2.61094954545100E-14  -2.61324546442541E-14  -2.12000903983125E-15
      2.93543495198903E-01
      8.00000000000000E-01   8.00000000000000E-01   0.00000000000000E+00   0.00000000000000E+00   1.37259391718083E-15
      1.71663589688794E-19   1.37276558077052E-15   3.47206822849807E-15   0.00000000000000E+00  -9.18447372075268E-17
      0.00000000000000E+00   0.00000000000000E+00  -1.03622747946331E-18   7.53898955847795E-14   7.53888593573001E-14
     -1.34196389738150E-15  -1.46771747599451E+01  -1.46771747599451E+01   0.00000000000000E+00   0.00000000000000E+00
     -2.29595376062557E-17  -7.67386654004645E-14  -7.67616249380707E-14  -2.13010433111657E-15
      3.03543495198903E-01
      8.00000000000000E-01   8.00000000000000E-01   0.00000000000000E+00   0.00000000000000E+00   1.37289100017277E-15
      1.07293997976383E-17   1.38362039997041E-15   3.45863219130357E-15   0.00000000000000E+00  -1.83689474415054E-16
      0.00000000000000E+00   0.00000000000000E+00  -1.03622303707580E-18   2.21640495468763E-13   2.21639459245726E-13
     -1.31820848274033E-15  -1.51771747599451E+01  -1.51771747599451E+01   0.00000000000000E+00   0.00000000000000E+00
     -2.29598938133191E-17  -2.23000119751883E-13  -2.23023079645697E-13  -2.14042370856324E-15
      3.13543495198903E-01
      8.00000000000000E-01   8.00000000000000E-01   0.00000000000000E+00   0.00000000000000E+00   1.37271192326597E-15
      2.59322278711471E-18   1.37530514605309E-15   3.44538641862723E-15   0.00000000000000E+00  -6.42913160452687E-16
      0.00000000000000E+00   0.00000000000000E+00  -1.03621808658709E-18   6.28885364837566E-13   6.28884328619480E-13
     -1.29441996447691E-15  -1.56771747599451E+01  -1.56771747599451E+01   0.00000000000000E+00   0.00000000000000E+00
     -2.29602583779063E-17  -6.30236673507152E-13  -6.30259633765530E-13  -2.15096645415032E-15
      3.23543495198903E-01
      8.00000000000000E-01   8.00000000000000E-01   0.00000000000000E+00   0.00000000000000E+00   1.37171273422043E-15
      6.49440355616213E-18   1.37820713777659E-15   3.43235326669033E-15   0.00000000000000E+00  -1.74505000694301E-15
      0.00000000000000E+00   0.00000000000000E+00  -1.03621306783773E-18   1.72121851750153E-12   1.72121748128846E-12
     -1.27062144740512E-15  -1.61771747599451E+01  -1.61771747599451E+01   0.00000000000000E+00   0.00000000000000E+00
     -2.29606313123431E-17  -1.72257272779493E-12  -1.72259568842624E-12  -2.16173181928521E-15
      3.33543495198903E-01
      8.00000000000000E-01   8.00000000000000E-01   0.00000000000000E+00   0.00000000000000E+00   1.36913985433856E-15
      7.51888535071834E-18   1.37665873968928E-15   3.41955588245129E-15   0.00000000000000E+00  -4.50039212316881E-15
      0.00000000000000E+00   0.00000000000000E+00  -1.03620777362249E-18   4.54056398425174E-12   4.54056294804396E-12
     -1.24683657368262E-15  -1.66771747599451E+01  -1.66771747599451E+01   0.00000000000000E+00   0.00000000000000E+00
     -2.29610126385260E-17  -4.54191664577103E-12  -4.54193960678367E-12  -2.17271930876866E-15
      3.43543495198903E-01
      8.00000000000000E-01   8.00000000000000E-01   0.00000000000000E+00   0.00000000000000E+00   1.36339149280024E-15
      4.89939267875989E-17   1.41238541958784E-15   3.40702257357356E-15   0.00000000000000E+00  -1.15724368881484E-14
      0.00000000000000E+00   0.00000000000000E+00  -1.03619888052319E-18   1.15339688719910E-11   1.15339678357921E-11
     -1.22309340252764E-15  -1.71771747599451E+01  -1.71771747599451E+01   0.00000000000000E+00   0.00000000000000E+00
     -2.29614024051887E-17  -1.15353572598093E-11  -1.15353802212117E-11  -2.18392917104593E-15
      3.53543495198903E-01
      8.00000000000000E-01   8.00000000000000E-01   0.00000000000000E+00   0.00000000000000E+00   1.35128689202359E-15
     -5.62787979484066E-18   1.34565901222875E-15   3.39479206328780E-15   0.00000000000000E+00  -2.81963343227107E-14
      0.00000000000000E+00   0.00000000000000E+00  -1.03618161421210E-18   2.81782613044175E-11   2.81782602682359E-11
     -1.19942873103918E-15  -1.76771747599451E+01  -1.76771747599451E+01   0.00000000000000E+00   0.00000000000000E+00
     -2.29618007209556E-17  -2.81795829654475E-11  -2.81796059272482E-11  -2.19536333224861E-15
      3.63543495198903E-01
      8.00000000000000E-01   8.00000000000000E-01   0.00000000000000E+00   0.00000000000000E+00   1.32722923068213E-15
     -9.60601682120713E-18   1.31762321386093E-15   3.38292077816951E-15   0.00000000000000E+00  -6.61282107894193E-14
      0.00000000000000E+00   0.00000000000000E+00  -1.03614498476607E-18   6.61019597959049E-11   6.61019587597599E-11
     -1.17589363877673E-15  -1.81771747599451E+01  -1.81771747599451E+01   0.00000000000000E+00   0.00000000000000E+00
     -2.29622078162940E-17  -6.61032534207655E-11  -6.61032763829733E-11  -2.20702713939278E-15
      3.73543495198903E-01
      8.00000000000000E-01   8.00000000000000E-01   0.00000000000000E+00   0.00000000000000E+00   1.28332326623122E-15
      1.99448072401425E-18   1.28531774695524E-15   3.37149310378912E-15   0.00000000000000E+00  -1.48604784801778E-13
      0.00000000000000E+00   0.00000000000000E+00  -1.03606957209755E-18   1.48569464214301E-10   1.48569463178232E-10
     -1.15256072446532E-15  -1.86771747599451E+01  -1.86771747599450E+01   0.00000000000000E+00   0.00000000000000E+00
     -2.29626241512039E-17  -1.48570725533354E-10  -1.48570748495978E-10  -2.21893237932380E-15
      3.83543495198903E-01
      8.00000000000000E-01   8.00000000000000E-01   0.00000000000000E+00   0.00000000000000E+00   1.21259531927138E-15
      1.85024941361706E-17   1.23109781340755E-15   3.36063448403729E-15   0.00000000000000E+00  -3.18976772321740E-13
      0.00000000000000E+00   0.00000000000000E+00  -1.03593097473363E-18   3.19001299075911E-10   3.19001298039980E-10
     -1.12953256197473E-15  -1.91771747599451E+01  -1.91771747599448E+01   0.00000000000000E+00   0.00000000000000E+00
     -2.29630505816655E-17  -3.19002506174741E-10  -3.19002529137792E-10  -2.23110192206255E-15
      3.93543495198903E-01
      8.00000000000000E-01   8.00000000000000E-01   0.00000000000000E+00   0.00000000000000E+00   1.11542214076786E-15
      3.49737463170743E-17   1.15039588708494E-15   3.35052443530360E-15   0.00000000000000E+00  -6.51913944699025E-13
      0.00000000000000E+00   0.00000000000000E+00  -1.03571402194128E-18   6.51936551775748E-10   6.51936550740034E-10
     -1.10694880605547E-15  -1.96771747599451E+01  -1.96771747599445E+01   0.00000000000000E+00   0.00000000000000E+00
     -2.29634885730134E-17  -6.51937678172432E-10  -6.51937701135921E-10  -2.24357562924813E-15
      4.03543495198903E-01
      8.00000000000000E-01   8.00000000000000E-01   0.00000000000000E+00   0.00000000000000E+00   1.00248710345541E-15
     -4.69526782346280E-17   9.55534425220785E-16   3.34140188136138E-15   0.00000000000000E+00  -1.26286513660349E-12
      0.00000000000000E+00   0.00000000000000E+00  -1.03542601208508E-18   1.26289578097970E-09   1.26289577994427E-09
     -1.08498632837220E-15  -2.01771747599451E+01  -2.01771747599439E+01   0.00000000000000E+00   0.00000000000000E+00
     -2.29639403909959E-17  -1.26289671251475E-09  -1.26289673547869E-09  -2.25641555298918E-15
      4.13543495198903E-01
      8.00000000000000E-01   8.00000000000000E-01   0.00000000000000E+00   0.00000000000000E+00   8.88642721620384E-16
      2.79536793055946E-18   8.91438089550943E-16   3.33355177208316E-15   0.00000000000000E+00  -2.30998698550651E-12
      0.00000000000000E+00   0.00000000000000E+00  -1.03508894887799E-18   2.30998490859658E-09   2.30998490756149E-09
     -1.06384525400281E-15  -2.06771747599451E+01  -2.06771747599428E+01   0.00000000000000E+00   0.00000000000000E+00
     -2.29644091315052E-17  -2.30998577603520E-09  -2.30998579899961E-09  -2.26970651808036E-15
      4.23543495198903E-01
      8.00000000000000E-01   8.00000000000000E-01   0.00000000000000E+00   0.00000000000000E+00   7.84769508764211E-16
     -1.69210782810234E-17   7.67848430483188E-16   3.32726671058118E-15   0.00000000000000E+00  -3.97999984215096E-12
      0.00000000000000E+00   0.00000000000000E+00  -1.03471992105889E-18   3.98001036617443E-09   3.98001036513971E-09
     -1.04371846433144E-15  -2.11771747599451E+01  -2.11771747599412E+01   0.00000000000000E+00   0.00000000000000E+00
     -2.29648984500150E-17  -3.98001111002326E-09  -3.98001113298816E-09  -2.28354824624974E-15
      4.33543495198903E-01
      8.00000000000000E-01   8.00000000000000E-01   0.00000000000000E+00   0.00000000000000E+00   6.95168614114051E-16
      2.43015917872443E-18   6.97598773292775E-16   3.32279333123646E-15   0.00000000000000E+00  -6.45962405727977E-12
      0.00000000000000E+00   0.00000000000000E+00  -1.03432207110163E-18   6.45965301373052E-09   6.45965301269620E-09
     -1.02475382217192E-15  -2.16771747599451E+01  -2.16771747599387E+01   0.00000000000000E+00   0.00000000000000E+00
     -2.29654120037038E-17  -6.45965368732955E-09  -6.45965371029496E-09  -2.29803950906453E-15
      4.43543495198903E-01
      8.00000000000000E-01   8.00000000000000E-01   0.00000000000000E+00   0.00000000000000E+00   6.19269727143757E-16
      9.15628928109669E-18   6.28426016424854E-16   3.32028809153052E-15   0.00000000000000E+00  -9.90370985782482E-12
      0.00000000000000E+00   0.00000000000000E+00  -1.03388750536354E-18   9.90367091934997E-09   9.90367091831608E-09
     -1.00702713437150E-15  -2.21771747599451E+01  -2.21771747599352E+01   0.00000000000000E+00   0.00000000000000E+00
     -2.29659528393222E-17  -9.90367152377594E-09  -9.90367154674189E-09  -2.31326095715902E-15
      4.53543495198903E-01
      8.00000000000000E-01   8.00000000000000E-01   0.00000000000000E+00   0.00000000000000E+00   5.54629202133856E-16
      1.72666770051162E-17   5.71895879138972E-16   3.31980284860126E-15   0.00000000000000E+00  -1.44150315047213E-11
      0.00000000000000E+00   0.00000000000000E+00  -1.03340415049879E-18   1.44150430049164E-08   1.44150430038830E-08
     -9.90538175779284E-16  -2.26771747599451E+01  -2.26771747599307E+01   0.00000000000000E+00   0.00000000000000E+00
     -2.29665230137120E-17  -1.44150435528122E-08  -1.44150435757787E-08  -2.32926467282198E-15
      4.63543495198903E-01
      8.00000000000000E-01   8.00000000000000E-01   0.00000000000000E+00   0.00000000000000E+00   4.99024146094582E-16
     -4.82543983653500E-17   4.50769747729232E-16   3.32130016755295E-15   0.00000000000000E+00  -2.00427259323753E-11