DF-ISE text

Info {
  version   = 1.0
  type      = xyplot
  datasets  = [
    "time"
    "Ntop OuterVoltage" "Ntop InnerVoltage" "Ntop QuasiFermiPotential" "Ntop DisplacementCurrent" "Ntop eCurrent"
    "Ntop hCurrent" "Ntop TotalCurrent" "Ntop Charge" "Ptop OuterVoltage" "Ptop InnerVoltage"
    "Ptop QuasiFermiPotential" "Ptop DisplacementCurrent" "Ptop eCurrent" "Ptop hCurrent" "Ptop TotalCurrent"
    "Ptop Charge" "Pbot OuterVoltage" "Pbot InnerVoltage" "Pbot QuasiFermiPotential" "Pbot DisplacementCurrent"
    "Pbot eCurrent" "Pbot hCurrent" "Pbot TotalCurrent" "Pbot Charge" ]
  functions = [
    Time
    OuterVoltage InnerVoltage QuasiFermiPotential DisplacementCurrent eCurrent
    hCurrent TotalCurrent Charge OuterVoltage InnerVoltage
    QuasiFermiPotential DisplacementCurrent eCurrent hCurrent TotalCurrent
    Charge OuterVoltage InnerVoltage QuasiFermiPotential DisplacementCurrent
    eCurrent hCurrent TotalCurrent Charge ]
}

Data {
      1.00000000000000E-03
      8.00000000000000E-01   8.00000000000000E-01   0.00000000000000E+00   0.00000000000000E+00   5.49669863279737E-16
     -4.53685851747264E-19   5.49216177427989E-16   3.30102920768171E-15   0.00000000000000E+00   0.00000000000000E+00
      0.00000000000000E+00   0.00000000000000E+00  -1.03635692386284E-18  -5.59740893126537E-17  -5.70104462365165E-17
     -1.37544491981236E-15  -5.00000000000000E-02  -5.00000000000000E-02   0.00000000000000E+00   0.00000000000000E+00
     -2.29526236940695E-17  -4.69253107497404E-16  -4.92205731191474E-16  -1.92558428786936E-15
      2.91111111111111E-03
      8.00000000000000E-01   8.00000000000000E-01   0.00000000000000E+00   0.00000000000000E+00   5.81283962723784E-16
     -4.35306238757893E-19   5.80848656485026E-16   3.30191151929923E-15   0.00000000000000E+00   0.00000000000000E+00
      0.00000000000000E+00   0.00000000000000E+00  -1.03635692344433E-18  -5.58503752391219E-17  -5.68867321625662E-17
     -1.37544382578659E-15  -1.45555555555556E-01  -1.45555555555555E-01   0.00000000000000E+00   0.00000000000000E+00
     -2.29526526273092E-17  -5.01009271695151E-16  -5.23961924322460E-16  -1.92646769351264E-15
      6.56345679012346E-03
      8.00000000000000E-01   8.00000000000000E-01   0.00000000000000E+00   0.00000000000000E+00   6.37747924024346E-16
      4.92889701631072E-19   6.38240813725977E-16   3.30359442477224E-15   0.00000000000000E+00   0.00000000000000E+00
      0.00000000000000E+00   0.00000000000000E+00  -1.03635692214726E-18  -5.56683431827875E-17  -5.67047001049347E-17
     -1.37544043510873E-15  -3.28172839506173E-01  -3.28172839506173E-01   0.00000000000000E+00   0.00000000000000E+00
     -2.29527079346298E-17  -5.58583405686412E-16  -5.81536113621042E-16  -1.92815398966351E-15
      1.35434951989026E-02
      8.00000000000000E-01   8.00000000000000E-01   0.00000000000000E+00   0.00000000000000E+00   7.34862791758141E-16
      9.46818984273314E-20   7.34957473656569E-16   3.30679472869368E-15   0.00000000000000E+00   0.00000000000000E+00
      0.00000000000000E+00   0.00000000000000E+00  -1.03635691620164E-18  -5.53522210042070E-17  -5.63885779204087E-17
     -1.37542489273065E-15  -6.77174759945130E-01  -6.77174759945130E-01   0.00000000000000E+00   0.00000000000000E+00
     -2.29528136456066E-17  -6.55616082090553E-16  -6.78568895736159E-16  -1.93136983596303E-15
      2.35434951989026E-02
      8.00000000000000E-01   8.00000000000000E-01   0.00000000000000E+00   0.00000000000000E+00   8.56448259515965E-16
      7.12363021517026E-19   8.57160622537482E-16   3.31131307463601E-15   0.00000000000000E+00   0.00000000000000E+00
      0.00000000000000E+00   0.00000000000000E+00  -1.03635688668380E-18  -5.50164939066094E-17  -5.60528507932932E-17
     -1.37534773807339E-15  -1.17717475994513E+00  -1.17717475994513E+00   0.00000000000000E+00   0.00000000000000E+00
     -2.29529651363926E-17  -7.78154806607796E-16  -8.01107771744189E-16  -1.93596533656262E-15
      3.35434951989026E-02
      8.00000000000000E-01   8.00000000000000E-01   0.00000000000000E+00   0.00000000000000E+00   9.60526915603622E-16
      5.22358132508625E-18   9.65750496928708E-16   3.31565644862867E-15   0.00000000000000E+00   0.00000000000000E+00
      0.00000000000000E+00   0.00000000000000E+00  -1.03635678696069E-18  -5.48371381621040E-17  -5.58734949490647E-17
     -1.37508706876095E-15  -1.67717475994513E+00  -1.67717475994513E+00   0.00000000000000E+00   0.00000000000000E+00
     -2.29531173087123E-17  -8.86923884670929E-16  -9.09877001979641E-16  -1.94056937986772E-15
      4.35434951989026E-02
      8.00000000000000E-01   8.00000000000000E-01   0.00000000000000E+00   0.00000000000000E+00   1.04433711544003E-15
      1.02216166038329E-18   1.04535927710041E-15   3.31962074895817E-15   0.00000000000000E+00   0.00000000000000E+00
      0.00000000000000E+00   0.00000000000000E+00  -1.03635651678266E-18  -5.48508725384396E-17  -5.58872290552223E-17
     -1.37438010700859E-15  -2.17717475994513E+00  -2.17717475994513E+00   0.00000000000000E+00   0.00000000000000E+00
     -2.29532720396477E-17  -9.66518776005539E-16  -9.89472048045187E-16  -1.94524064194958E-15
      5.35434951989026E-02
      8.00000000000000E-01   8.00000000000000E-01   0.00000000000000E+00   0.00000000000000E+00   1.11072014119809E-15
     -2.48753914003728E-18   1.10823260205805E-15   3.32286009587927E-15   0.00000000000000E+00   0.00000000000000E+00
      0.00000000000000E+00   0.00000000000000E+00  -1.03635592215793E-18  -5.50400787207237E-17  -5.60764346428817E-17
     -1.37281938419141E-15  -2.67717475994513E+00  -2.67717475994513E+00   0.00000000000000E+00   0.00000000000000E+00
     -2.29534313421447E-17  -1.02920273607303E-15  -1.05215616741517E-15  -1.95004071168787E-15
      6.35434951989026E-02
      8.00000000000000E-01   8.00000000000000E-01   0.00000000000000E+00   0.00000000000000E+00   1.16258042931598E-15
      5.74709612326133E-18   1.16832752543924E-15   3.32497959164124E-15   0.00000000000000E+00   0.00000000000000E+00
      0.00000000000000E+00   0.00000000000000E+00  -1.03635484256723E-18  -5.56242791927023E-17  -5.66606340352696E-17
     -1.36996277692411E-15  -3.17717475994513E+00  -3.17717475994513E+00   0.00000000000000E+00   0.00000000000000E+00
     -2.29535967768578E-17  -1.08871329462711E-15  -1.11166689140397E-15  -1.95501681471712E-15
      7.35434951989026E-02
      8.00000000000000E-01   8.00000000000000E-01   0.00000000000000E+00   0.00000000000000E+00   1.20295814921023E-15
      4.75595882701749E-18   1.20771410803725E-15   3.32573191951286E-15   0.00000000000000E+00   0.00000000000000E+00
      0.00000000000000E+00   0.00000000000000E+00  -1.03635319340383E-18  -5.65957677003284E-17  -5.76321208937322E-17
     -1.36553191730784E-15  -3.67717475994513E+00  -3.67717475994513E+00   0.00000000000000E+00   0.00000000000000E+00
     -2.29537693814350E-17  -1.12712821776208E-15  -1.15008198714352E-15  -1.96020000220502E-15
      8.35434951989026E-02
      8.00000000000000E-01   8.00000000000000E-01   0.00000000000000E+00   0.00000000000000E+00   1.23432624206150E-15
      7.07306429125326E-20   1.23439697270442E-15   3.32517173168725E-15   0.00000000000000E+00   0.00000000000000E+00
      0.00000000000000E+00   0.00000000000000E+00  -1.03635102012215E-18  -5.81810290357491E-17  -5.92173800558712E-17
     -1.35956241726516E-15  -4.17717475994513E+00  -4.17717475994513E+00   0.00000000000000E+00   0.00000000000000E+00
     -2.29539498024135E-17  -1.15222564284613E-15  -1.17517959264854E-15  -1.96560931442209E-15
      9.35434951989026E-02
      8.00000000000000E-01   8.00000000000000E-01   0.00000000000000E+00   0.00000000000000E+00   1.25925627890962E-15
     -1.56746990766683E-18   1.25768880900196E-15   3.32357863649647E-15   0.00000000000000E+00   0.00000000000000E+00
      0.00000000000000E+00   0.00000000000000E+00  -1.03634845086650E-18  -6.03449991607543E-17  -6.13813476116208E-17
     -1.35232150171733E-15  -4.67717475994513E+00  -4.67717475994513E+00   0.00000000000000E+00   0.00000000000000E+00
     -2.29541384698789E-17  -1.17335332292046E-15  -1.19630746139034E-15  -1.97125713477914E-15
      1.03543495198903E-01
      8.00000000000000E-01   8.00000000000000E-01   0.00000000000000E+00   0.00000000000000E+00   1.27915318560025E-15
      8.70310545216185E-18   1.28785629105241E-15   3.32124607407306E-15   0.00000000000000E+00   0.00000000000000E+00
      0.00000000000000E+00   0.00000000000000E+00  -1.03634560660067E-18  -6.28547181628650E-17  -6.38910637694656E-17
     -1.34409538773105E-15  -5.17717475994513E+00  -5.17717475994513E+00   0.00000000000000E+00   0.00000000000000E+00
     -2.29543356453240E-17  -1.20101089163763E-15  -1.22396522728295E-15  -1.97715068634201E-15
      1.13543495198903E-01
      8.00000000000000E-01   8.00000000000000E-01   0.00000000000000E+00   0.00000000000000E+00   1.29457616075674E-15
     -1.21451368621292E-17   1.28243102389461E-15   3.31838277750545E-15   0.00000000000000E+00   0.00000000000000E+00
      0.00000000000000E+00   0.00000000000000E+00  -1.03634256730443E-18  -6.50349647191277E-17  -6.60713072864321E-17
     -1.33508972064404E-15  -5.67717475994513E+00  -5.67717475994513E+00   0.00000000000000E+00   0.00000000000000E+00
     -2.29545414544431E-17  -1.19340517515374E-15  -1.21635971660818E-15  -1.98329305686140E-15
      1.23543495198903E-01
      8.00000000000000E-01   8.00000000000000E-01   0.00000000000000E+00   0.00000000000000E+00   1.30615508106408E-15
      7.07911924409556E-18   1.31323420030818E-15   3.31512036358043E-15   0.00000000000000E+00   0.00000000000000E+00
      0.00000000000000E+00   0.00000000000000E+00  -1.03633938038851E-18  -6.63946352824642E-17  -6.74309746628527E-17
     -1.32543566332853E-15  -6.17717475994513E+00  -6.17717475994513E+00   0.00000000000000E+00   0.00000000000000E+00
     -2.29547559363856E-17  -1.22284846970894E-15  -1.24580322564532E-15  -1.98968470025190E-15
      1.33543495198903E-01
      8.00000000000000E-01   8.00000000000000E-01   0.00000000000000E+00   0.00000000000000E+00   1.31497094528446E-15
      5.73262663137425E-18   1.32070357191583E-15   3.31154202099925E-15   0.00000000000000E+00   0.00000000000000E+00
      0.00000000000000E+00   0.00000000000000E+00  -1.03633607440681E-18  -6.70544158498093E-17  -6.80907519242161E-17
     -1.31521740173942E-15  -6.67717475994513E+00  -6.67717475994513E+00   0.00000000000000E+00   0.00000000000000E+00
     -2.29549790827847E-17  -1.22965784090883E-15  -1.25261281999162E-15  -1.99632461925985E-15
      1.43543495198903E-01
      8.00000000000000E-01   8.00000000000000E-01   0.00000000000000E+00   0.00000000000000E+00   1.32196499091834E-15
      8.50931689180269E-18   1.33047430781014E-15   3.30770293822503E-15   0.00000000000000E+00   0.00000000000000E+00
      0.00000000000000E+00   0.00000000000000E+00  -1.03633266773090E-18  -6.72614402310596E-17  -6.82977728987905E-17
     -1.30449187001007E-15  -7.17717475994513E+00  -7.17717475994513E+00   0.00000000000000E+00   0.00000000000000E+00
     -2.29552108610153E-17  -1.23922132405034E-15  -1.26217653491135E-15  -2.00321106821497E-15
      1.53543495198903E-01
      8.00000000000000E-01   8.00000000000000E-01   0.00000000000000E+00   0.00000000000000E+00   1.32770915139952E-15
      2.36509635598223E-17   1.35136011495934E-15   3.30364186654303E-15   0.00000000000000E+00   0.00000000000000E+00
      0.00000000000000E+00   0.00000000000000E+00  -1.03632917309685E-18  -6.71693716851586E-17  -6.82057008582555E-17
     -1.29329993099418E-15  -7.67717475994513E+00  -7.67717475994513E+00   0.00000000000000E+00   0.00000000000000E+00
     -2.29554512268616E-17  -1.26019896287422E-15  -1.28315441410108E-15  -2.01034193554885E-15
      1.63543495198903E-01
      8.00000000000000E-01   8.00000000000000E-01   0.00000000000000E+00   0.00000000000000E+00   1.33252330721132E-15
      2.15412775228155E-17   1.35406458473414E-15   3.29938744208374E-15   0.00000000000000E+00   0.00000000000000E+00
      0.00000000000000E+00   0.00000000000000E+00  -1.03632559993292E-18  -6.69264651488044E-17  -6.79627907487373E-17
     -1.28167249212969E-15  -8.17717475994513E+00  -8.17717475994513E+00   0.00000000000000E+00   0.00000000000000E+00
     -2.29557001313486E-17  -1.26314609385405E-15  -1.28610179398540E-15  -2.01771494995405E-15
      1.73543495198903E-01
      8.00000000000000E-01   8.00000000000000E-01   0.00000000000000E+00   0.00000000000000E+00   1.33660686073332E-15
     -1.79363117211457E-17   1.31867054901217E-15   3.29496175518735E-15   0.00000000000000E+00   0.00000000000000E+00
      0.00000000000000E+00   0.00000000000000E+00  -1.03632195559880E-18  -6.65371799048202E-17  -6.75735018604190E-17
     -1.26963396211182E-15  -8.67717475994513E+00  -8.67717475994513E+00   0.00000000000000E+00   0.00000000000000E+00
     -2.29559575244827E-17  -1.22814108962727E-15  -1.25109704715176E-15  -2.02532779307553E-15
      1.83543495198903E-01
      8.00000000000000E-01   8.00000000000000E-01   0.00000000000000E+00   0.00000000000000E+00   1.34011038538979E-15
     -8.52103854858289E-18   1.33158934684120E-15   3.29038247811692E-15   0.00000000000000E+00   0.00000000000000E+00
      0.00000000000000E+00   0.00000000000000E+00  -1.03631824608749E-18  -6.60197039782740E-17  -6.70560222243615E-17
     -1.25720431648088E-15  -9.17717475994513E+00  -9.17717475994513E+00   0.00000000000000E+00   0.00000000000000E+00
     -2.29562233573150E-17  -1.24157710125953E-15  -1.26453332461684E-15  -2.03317816163603E-15
      1.93543495198903E-01
      8.00000000000000E-01   8.00000000000000E-01   0.00000000000000E+00   0.00000000000000E+00   1.34316352942458E-15
      1.11611592247012E-17   1.35432468864928E-15   3.28566420257518E-15   0.00000000000000E+00   0.00000000000000E+00
      0.00000000000000E+00   0.00000000000000E+00  -1.03631447644799E-18  -6.54109089440786E-17  -6.64472234205266E-17
     -1.24440040191305E-15  -9.67717475994513E+00  -9.67717475994513E+00   0.00000000000000E+00   0.00000000000000E+00
     -2.29564975830345E-17  -1.26492096764572E-15  -1.28787746522875E-15  -2.04126380066213E-15
      2.03543495198903E-01
      8.00000000000000E-01   8.00000000000000E-01   0.00000000000000E+00   0.00000000000000E+00   1.34587811668311E-15
      1.15731901658479E-17   1.35745130684895E-15   3.28081931504154E-15   0.00000000000000E+00   0.00000000000000E+00
      0.00000000000000E+00   0.00000000000000E+00  -1.03631065105270E-18  -6.46857845820691E-17  -6.57220952331218E-17
     -1.23123679596498E-15  -1.01771747599451E+01  -1.01771747599451E+01   0.00000000000000E+00   0.00000000000000E+00
     -2.29567801574901E-17  -1.26877243145834E-15  -1.29172921161583E-15  -2.04958251907657E-15
      2.13543495198903E-01
      8.00000000000000E-01   8.00000000000000E-01   0.00000000000000E+00   0.00000000000000E+00   1.34833451918413E-15
      8.65018933722197E-18   1.35698470852135E-15   3.27585858566611E-15   0.00000000000000E+00   0.00000000000000E+00
      0.00000000000000E+00   0.00000000000000E+00  -1.03630677377283E-18  -6.37675524102134E-17  -6.48038591839862E-17
     -1.21772639150369E-15  -1.06771747599451E+01  -1.06771747599451E+01   0.00000000000000E+00   0.00000000000000E+00
     -2.29570710393347E-17  -1.26922377829803E-15  -1.29218084933737E-15  -2.05813219416242E-15
      2.23543495198903E-01
      8.00000000000000E-01   8.00000000000000E-01   0.00000000000000E+00   0.00000000000000E+00   1.35058656503488E-15
     -8.74898545568837E-18   1.34183757957919E-15   3.27079157402172E-15   0.00000000000000E+00   0.00000000000000E+00
      0.00000000000000E+00   0.00000000000000E+00  -1.03630284809650E-18  -6.24542224415873E-17  -6.34905252896838E-17
     -1.20388080476583E-15  -1.11771747599451E+01  -1.11771747599451E+01   0.00000000000000E+00   0.00000000000000E+00
     -2.29573701899391E-17  -1.25538968409957E-15  -1.27834705428951E-15  -2.06691076925589E-15
      2.33543495198903E-01
      8.00000000000000E-01   8.00000000000000E-01   0.00000000000000E+00   0.00000000000000E+00   1.35268845578219E-15
      1.89161157998627E-17   1.37160457158205E-15   3.26562691766643E-15   0.00000000000000E+00   0.00000000000000E+00
      0.00000000000000E+00   0.00000000000000E+00  -1.03629887721099E-18  -5.98513790657286E-17  -6.08876779429396E-17
     -1.18971066981194E-15  -1.16771747599451E+01  -1.16771747599451E+01   0.00000000000000E+00   0.00000000000000E+00
     -2.29576775731905E-17  -1.28775921606592E-15  -1.31071689363911E-15  -2.07591624785449E-15
      2.43543495198903E-01
      8.00000000000000E-01   8.00000000000000E-01   0.00000000000000E+00   0.00000000000000E+00   1.35468987139751E-15
     -2.98487105571928E-18   1.35170500034179E-15   3.26037254739130E-15   0.00000000000000E+00   0.00000000000000E+00
      0.00000000000000E+00   0.00000000000000E+00  -1.03629486406181E-18  -5.33555478814661E-17  -5.43918427455279E-17
     -1.17522586094920E-15  -1.21771747599451E+01  -1.21771747599451E+01   0.00000000000000E+00   0.00000000000000E+00
     -2.29579931552407E-17  -1.27435516444102E-15  -1.29731315759626E-15  -2.08514668644210E-15
      2.53543495198903E-01
      8.00000000000000E-01   8.00000000000000E-01   0.00000000000000E+00   0.00000000000000E+00   1.35661920492318E-15
     -7.75390671833174E-18   1.34886529820485E-15   3.25503585855879E-15   0.00000000000000E+00   0.00000000000000E+00
      0.00000000000000E+00   0.00000000000000E+00  -1.03629081139725E-18  -3.43900159450134E-17  -3.54263067564106E-17
     -1.16043567099042E-15  -1.26771747599451E+01  -1.26771747599451E+01   0.00000000000000E+00   0.00000000000000E+00
     -2.29583169042654E-17  -1.29048067454417E-15  -1.31343899144844E-15  -2.09460018756837E-15
      2.63543495198903E-01
      8.00000000000000E-01   8.00000000000000E-01   0.00000000000000E+00   0.00000000000000E+00   1.35849129028637E-15
     -1.41947831572896E-17   1.34429650712908E-15   3.24962385839562E-15   0.00000000000000E+00   0.00000000000000E+00
      0.00000000000000E+00   0.00000000000000E+00  -1.03628672180351E-18   2.38595122578696E-17   2.28232255360661E-17
     -1.14534896430782E-15  -1.31771747599451E+01  -1.31771747599451E+01   0.00000000000000E+00   0.00000000000000E+00
     -2.29586487902625E-17  -1.34416108387489E-15  -1.36711973266515E-15  -2.10427489408780E-15
      2.73543495198903E-01
      8.00000000000000E-01   8.00000000000000E-01   0.00000000000000E+00   0.00000000000000E+00   1.36031119730071E-15
      8.69303721195441E-18   1.36900423451267E-15   3.24414330336797E-15   0.00000000000000E+00   0.00000000000000E+00
      0.00000000000000E+00   0.00000000000000E+00  -1.03628259773373E-18   2.04361770283255E-16   2.03325487685521E-16
     -1.12997431835099E-15  -1.36771747599451E+01  -1.36771747599451E+01   0.00000000000000E+00   0.00000000000000E+00
     -2.29589887849050E-17  -1.54937073341329E-15  -1.57232972219819E-15  -2.11416898501699E-15
      2.83543495198903E-01
      8.00000000000000E-01   8.00000000000000E-01   0.00000000000000E+00   0.00000000000000E+00   1.36207596633682E-15
     -1.31055698559708E-17   1.34897039648085E-15   3.23860083797819E-15   0.00000000000000E+00   0.00000000000000E+00
      0.00000000000000E+00   0.00000000000000E+00  -1.03627844153225E-18   7.57903769443365E-16   7.56867491001833E-16
     -1.11432016478875E-15  -1.41771747599451E+01  -1.41771747599451E+01   0.00000000000000E+00   0.00000000000000E+00
     -2.29593368614491E-17  -2.08287855062123E-15  -2.10583788748268E-15  -2.12428067318944E-15
      2.93543495198903E-01
      8.00000000000000E-01   8.00000000000000E-01   0.00000000000000E+00   0.00000000000000E+00   1.36377321171902E-15
     -7.48046296316688E-18   1.35629274875586E-15   3.23300314578870E-15   0.00000000000000E+00   0.00000000000000E+00
      0.00000000000000E+00   0.00000000000000E+00  -1.03627425545101E-18   2.42715013214846E-15   2.42611385789301E-15
     -1.09839494101482E-15  -1.46771747599451E+01  -1.46771747599451E+01   0.00000000000000E+00   0.00000000000000E+00
     -2.29596929947196E-17  -3.75944691365415E-15  -3.78240660664886E-15  -2.13460820477387E-15
      3.03543495198903E-01
      8.00000000000000E-01   8.00000000000000E-01   0.00000000000000E+00   0.00000000000000E+00   1.36538259770587E-15
      6.25031384033048E-18   1.37163291154620E-15   3.22735712477566E-15   0.00000000000000E+00   0.00000000000000E+00
      0.00000000000000E+00   0.00000000000000E+00  -1.03627004163908E-18   7.35902432406127E-15   7.35798805401964E-15
     -1.08220726400483E-15  -1.51771747599451E+01  -1.51771747599451E+01   0.00000000000000E+00   0.00000000000000E+00
     -2.29600571611471E-17  -8.70666090840468E-15  -8.72962096556582E-15  -2.14514986077085E-15
      3.13543495198903E-01
      8.00000000000000E-01   8.00000000000000E-01   0.00000000000000E+00   0.00000000000000E+00   1.36687629706951E-15
     -1.17936490248541E-17   1.35508264804465E-15   3.22167010231046E-15   0.00000000000000E+00   0.00000000000000E+00
      0.00000000000000E+00   0.00000000000000E+00  -1.03626580202106E-18   2.16089896257849E-14   2.16079533599829E-14
     -1.06576614138290E-15  -1.56771747599451E+01  -1.56771747599451E+01   0.00000000000000E+00   0.00000000000000E+00
     -2.29604293389060E-17  -2.29400755786886E-14  -2.29630360080275E-14  -2.15590396092755E-15
      3.23543495198903E-01
      8.00000000000000E-01   8.00000000000000E-01   0.00000000000000E+00   0.00000000000000E+00   1.36821692832506E-15
     -8.14632559459583E-18   1.36007060273047E-15   3.21595011089672E-15   0.00000000000000E+00  -9.18447372075268E-17
      0.00000000000000E+00   0.00000000000000E+00  -1.03626153772169E-18   6.18078171118029E-14   6.18067808502652E-14
     -1.04908123950894E-15  -1.61771747599451E+01  -1.61771747599451E+01   0.00000000000000E+00   0.00000000000000E+00
     -2.29608095081769E-17  -6.31438906434876E-14  -6.31668514529958E-14  -2.16686887138779E-15
      3.33543495198903E-01
      8.00000000000000E-01   8.00000000000000E-01   0.00000000000000E+00   0.00000000000000E+00   1.36934675813707E-15
     -1.65309892756698E-17   1.35281576886140E-15   3.21020625614501E-15   0.00000000000000E+00  -1.83689474415054E-16
      0.00000000000000E+00   0.00000000000000E+00  -1.03625724674464E-18   1.72355428751203E-13   1.72354392493956E-13
     -1.03216323661672E-15  -1.66771747599451E+01  -1.66771747599451E+01   0.00000000000000E+00   0.00000000000000E+00
     -2.29611976516608E-17  -1.73684247065166E-13  -1.73707208262818E-13  -2.17804301952828E-15
      3.43543495198903E-01
      8.00000000000000E-01   8.00000000000000E-01   0.00000000000000E+00   0.00000000000000E+00   1.37015865818837E-15
      5.52813505520878E-18   1.37568679324358E-15   3.20444922717978E-15   0.00000000000000E+00  -4.59223686037634E-16
      0.00000000000000E+00   0.00000000000000E+00  -1.03625291544909E-18   4.68264155872345E-13   4.68263119619429E-13
     -1.01502430285356E-15  -1.71771747599451E+01  -1.71771747599451E+01   0.00000000000000E+00   0.00000000000000E+00
     -2.29615937556572E-17  -4.69615844818917E-13  -4.69638806412673E-13  -2.18942492432621E-15
      3.53543495198903E-01
      8.00000000000000E-01   8.00000000000000E-01   0.00000000000000E+00   0.00000000000000E+00   1.37043122532794E-15
      1.71474703386153E-17   1.38757869566655E-15   3.19869203383146E-15   0.00000000000000E+00  -1.19398158369785E-15
      0.00000000000000E+00   0.00000000000000E+00  -1.03624849013204E-18   1.23800048868250E-12   1.23799945243401E-12
     -9.97678772562526E-16  -1.76771747599451E+01  -1.76771747599451E+01   0.00000000000000E+00   0.00000000000000E+00
     -2.29619978123536E-17  -1.23936406913186E-12  -1.23938703112968E-12  -2.20101326126894E-15
      3.63543495198903E-01
      8.00000000000000E-01   8.00000000000000E-01   0.00000000000000E+00   0.00000000000000E+00   1.36968769745325E-15
     -2.21253141707685E-17   1.34756238328249E-15   3.19295111612343E-15   0.00000000000000E+00  -3.21456580226344E-15
      0.00000000000000E+00   0.00000000000000E+00  -1.03624379293932E-18   3.18044935758551E-12   3.18044832134172E-12
     -9.80144113391109E-16  -1.81771747599451E+01  -1.81771747599451E+01   0.00000000000000E+00   0.00000000000000E+00
     -2.29624098248185E-17  -3.18177292131517E-12  -3.18179588372499E-12  -2.21280700273231E-15
      3.73543495198903E-01
      8.00000000000000E-01   8.00000000000000E-01   0.00000000000000E+00   0.00000000000000E+00   1.36691818585115E-15
     -3.00625285742647E-18   1.36391193299372E-15   3.18724807491864E-15   0.00000000000000E+00  -7.89864739984730E-15
      0.00000000000000E+00   0.00000000000000E+00  -1.03623830421857E-18   7.92656394821820E-12   7.92656291197990E-12
     -9.62442358337216E-16  -1.86771747599451E+01  -1.86771747599451E+01   0.00000000000000E+00   0.00000000000000E+00
     -2.29628298176392E-17  -7.92790386108314E-12  -7.92792682391296E-12  -2.22480571658142E-15
      3.83543495198903E-01
      8.00000000000000E-01   8.00000000000000E-01   0.00000000000000E+00   0.00000000000000E+00   1.36009598045241E-15
     -1.58388539725910E-17   1.34425712647982E-15   3.18161242841035E-15   0.00000000000000E+00  -1.91037053391656E-14
      0.00000000000000E+00   0.00000000000000E+00  -1.03623067476063E-18   1.91293223849989E-11   1.91293213487682E-11
     -9.44602250320592E-16  -1.91771747599451E+01  -1.91771747599451E+01   0.00000000000000E+00   0.00000000000000E+00
     -2.29632578587680E-17  -1.91306426426371E-11  -1.91306656058950E-11  -2.23701017808976E-15
      3.93543495198903E-01
      8.00000000000000E-01   8.00000000000000E-01   0.00000000000000E+00   0.00000000000000E+00   1.34554943587101E-15
     -1.30587254571229E-17   1.33249071041389E-15   3.17608598355694E-15   0.00000000000000E+00  -4.46365422828580E-14
      0.00000000000000E+00   0.00000000000000E+00  -1.03621783926900E-18   4.46041838061547E-11   4.46041827699368E-11
     -9.26662426276715E-16  -1.96771747599451E+01  -1.96771747599451E+01   0.00000000000000E+00   0.00000000000000E+00
     -2.29636941020628E-17  -4.46054922969527E-11  -4.46055152606468E-11  -2.24942355728022E-15
      4.03543495198903E-01
      8.00000000000000E-01   8.00000000000000E-01   0.00000000000000E+00   0.00000000000000E+00   1.31775039867857E-15
     -6.08643531098383E-18   1.31166396336759E-15   3.17072949758382E-15   0.00000000000000E+00  -1.00202608293412E-13
      0.00000000000000E+00   0.00000000000000E+00  -1.03619397767119E-18   1.00218333968862E-10   1.00218332932668E-10
     -9.08675939228431E-16  -2.01771747599451E+01  -2.01771747599450E+01   0.00000000000000E+00   0.00000000000000E+00
     -2.29641388641881E-17  -1.00219621632494E-10  -1.00219644596633E-10  -2.26205355835539E-15
      4.13543495198903E-01
      8.00000000000000E-01   8.00000000000000E-01   0.00000000000000E+00   0.00000000000000E+00   1.27093691933626E-15
     -4.15465455256901E-18   1.26678226478369E-15   3.16563194683811E-15   0.00000000000000E+00  -2.16294356123726E-13
      0.00000000000000E+00   0.00000000000000E+00  -1.03615067417758E-18   2.16258292728075E-10   2.16258291691925E-10
     -8.90716048909426E-16  -2.06771747599451E+01  -2.06771747599449E+01   0.00000000000000E+00   0.00000000000000E+00
     -2.29645927501809E-17  -2.16259535509593E-10  -2.16259558474186E-10  -2.27491589792869E-15
      4.23543495198903E-01
      8.00000000000000E-01   8.00000000000000E-01   0.00000000000000E+00   0.00000000000000E+00   1.20342346552874E-15
     -9.04103029238258E-18   1.19438243523636E-15   3.16092129480693E-15   0.00000000000000E+00  -4.46365422828580E-13
      0.00000000000000E+00   0.00000000000000E+00  -1.03608027910414E-18   4.46378483182566E-10   4.46378482146486E-10
     -8.72882141461160E-16  -2.11771747599451E+01  -2.11771747599447E+01   0.00000000000000E+00   0.00000000000000E+00
     -2.29650568295389E-17  -4.46379653563860E-10  -4.46379676528917E-10  -2.28803915334576E-15
      4.33543495198903E-01
      8.00000000000000E-01   8.00000000000000E-01   0.00000000000000E+00   0.00000000000000E+00   1.12119245346334E-15
     -9.60581751231629E-19   1.12023187171211E-15   3.15677265528630E-15   0.00000000000000E+00  -8.77300929806296E-13
      0.00000000000000E+00   0.00000000000000E+00  -1.03598100737634E-18   8.77313249233492E-10   8.77313248197511E-10
     -8.55302701764203E-16  -2.16771747599451E+01  -2.16771747599443E+01   0.00000000000000E+00   0.00000000000000E+00
     -2.29655328269787E-17  -8.77314345463848E-10  -8.77314368429381E-10  -2.30146995352209E-15
      4.43543495198903E-01
      8.00000000000000E-01   8.00000000000000E-01   0.00000000000000E+00   0.00000000000000E+00   1.03509817790587E-15
      7.00416501781949E-18   1.04210234292369E-15   3.15340621086406E-15   0.00000000000000E+00  -1.63437709860794E-12
      0.00000000000000E+00   0.00000000000000E+00  -1.03585722515515E-18   1.63441082236384E-09   1.63441082132799E-09
     -8.38130415728610E-16  -2.21771747599451E+01  -2.21771747599435E+01   0.00000000000000E+00   0.00000000000000E+00
     -2.29660232308104E-17  -1.63441184046430E-09  -1.63441186343033E-09  -2.31527579513545E-15
      4.53543495198903E-01
      8.00000000000000E-01   8.00000000000000E-01   0.00000000000000E+00   0.00000000000000E+00   9.53782208827800E-16
     -4.64255696990356E-17   9.07356639128764E-16   3.15106733106953E-15   0.00000000000000E+00  -2.87611794565370E-12
      0.00000000000000E+00   0.00000000000000E+00  -1.03571332438915E-18   2.87615007413192E-09   2.87615007309621E-09
     -8.21525536953262E-16  -2.26771747599451E+01  -2.26771747599423E+01   0.00000000000000E+00   0.00000000000000E+00
     -2.29665311854735E-17  -2.87615095748639E-09  -2.87615098045292E-09  -2.32954179411626E-15
      4.63543495198903E-01
      8.00000000000000E-01   8.00000000000000E-01   0.00000000000000E+00   0.00000000000000E+00   8.80616763571545E-16
     -1.53886708145736E-17   8.65228092756971E-16   3.14998974010044E-15   0.00000000000000E+00  -4.77445681899607E-12