DF-ISE text

Info {
  version   = 1.0
  type      = xyplot
  datasets  = [
    "time"
    "Ntop OuterVoltage" "Ntop InnerVoltage" "Ntop QuasiFermiPotential" "Ntop DisplacementCurrent" "Ntop eCurrent"
    "Ntop hCurrent" "Ntop TotalCurrent" "Ntop Charge" "Ptop OuterVoltage" "Ptop InnerVoltage"
    "Ptop QuasiFermiPotential" "Ptop DisplacementCurrent" "Ptop eCurrent" "Ptop hCurrent" "Ptop TotalCurrent"
    "Ptop Charge" "Pbot OuterVoltage" "Pbot InnerVoltage" "Pbot QuasiFermiPotential" "Pbot DisplacementCurrent"
    "Pbot eCurrent" "Pbot hCurrent" "Pbot TotalCurrent" "Pbot Charge" ]
  functions = [
    Time
    OuterVoltage InnerVoltage QuasiFermiPotential DisplacementCurrent eCurrent
    hCurrent TotalCurrent Charge OuterVoltage InnerVoltage
    QuasiFermiPotential DisplacementCurrent eCurrent hCurrent TotalCurrent
    Charge OuterVoltage InnerVoltage QuasiFermiPotential DisplacementCurrent
    eCurrent hCurrent TotalCurrent Charge ]
}

Data {
      1.00000000000000E-03
      8.00000000000000E-01   8.00000000000000E-01   0.00000000000000E+00   0.00000000000000E+00   5.55953510675160E-16
      9.82814417327113E-19   5.56936325092487E-16   7.25652500968186E-15   0.00000000000000E+00   0.00000000000000E+00
      0.00000000000000E+00   0.00000000000000E+00  -1.03632569227375E-18  -6.23495847220257E-17  -6.33859104142995E-17
     -5.33094074458002E-15  -5.00000000000000E-02  -5.00000000000000E-02   0.00000000000000E+00   0.00000000000000E+00
     -2.29526236933242E-17  -4.70597790984863E-16  -4.93550414678187E-16  -1.92558426510183E-15
      2.91111111111111E-03
      8.00000000000000E-01   8.00000000000000E-01   0.00000000000000E+00   0.00000000000000E+00   5.87568862494496E-16
      5.78158797142044E-19   5.88147021291638E-16   7.25740710747694E-15   0.00000000000000E+00   0.00000000000000E+00
      0.00000000000000E+00   0.00000000000000E+00  -1.03632569181075E-18  -6.22343933518685E-17  -6.32707190436793E-17
     -5.33093944701937E-15  -1.45555555555556E-01  -1.45555555555555E-01   0.00000000000000E+00   0.00000000000000E+00
     -2.29526526262259E-17  -5.01923649621733E-16  -5.24876302247959E-16  -1.92646766045759E-15
      6.56345679012346E-03
      8.00000000000000E-01   8.00000000000000E-01   0.00000000000000E+00   0.00000000000000E+00   6.44036685207837E-16
      2.06468124533494E-20   6.44057332020290E-16   7.25908935001783E-15   0.00000000000000E+00   0.00000000000000E+00
      0.00000000000000E+00   0.00000000000000E+00  -1.03632569037562E-18  -6.20227552982637E-17  -6.30590809886394E-17
     -5.33093542520011E-15  -3.28172839506173E-01  -3.28172839506173E-01   0.00000000000000E+00   0.00000000000000E+00
     -2.29527079325013E-17  -5.58045543099150E-16  -5.80998251031651E-16  -1.92815392481775E-15
      1.35434951989026E-02
      8.00000000000000E-01   8.00000000000000E-01   0.00000000000000E+00   0.00000000000000E+00   7.41168965246332E-16
     -1.19334087123496E-19   7.41049631159208E-16   7.26228660936462E-15   0.00000000000000E+00   0.00000000000000E+00
      0.00000000000000E+00   0.00000000000000E+00  -1.03632568379450E-18  -6.16917882049039E-17  -6.27281138886984E-17
     -5.33091698287886E-15  -6.77174759945130E-01  -6.77174759945130E-01   0.00000000000000E+00   0.00000000000000E+00
     -2.29528136387118E-17  -6.55368703631798E-16  -6.78321517270510E-16  -1.93136962648576E-15
      2.35434951989026E-02
      8.00000000000000E-01   8.00000000000000E-01   0.00000000000000E+00   0.00000000000000E+00   8.62836490846827E-16
     -5.23675369292493E-19   8.62312815477535E-16   7.26678972305598E-15   0.00000000000000E+00   0.00000000000000E+00
      0.00000000000000E+00   0.00000000000000E+00  -1.03632565107072E-18  -6.13520417427865E-17  -6.23883673938572E-17
     -5.33082529531643E-15  -1.17717475994513E+00  -1.17717475994513E+00   0.00000000000000E+00   0.00000000000000E+00
     -2.29529651063907E-17  -7.76971482977288E-16  -7.99924448083678E-16  -1.93596442773955E-15
      3.35434951989026E-02
      8.00000000000000E-01   8.00000000000000E-01   0.00000000000000E+00   0.00000000000000E+00   9.67152875969739E-16
     -1.81313812806799E-18   9.65339737841671E-16   7.27108060076594E-15   0.00000000000000E+00   0.00000000000000E+00
      0.00000000000000E+00   0.00000000000000E+00  -1.03632554007753E-18  -6.11713752926909E-17  -6.22077008327684E-17
     -5.33051431631319E-15  -1.67717475994513E+00  -1.67717475994513E+00   0.00000000000000E+00   0.00000000000000E+00
     -2.29531172062855E-17  -8.80178919802616E-16  -9.03132037008901E-16  -1.94056628445277E-15
      4.35434951989026E-02
      8.00000000000000E-01   8.00000000000000E-01   0.00000000000000E+00   0.00000000000000E+00   1.05146068754582E-15
      1.22588210590156E-18   1.05268656965172E-15   7.27489719870058E-15   0.00000000000000E+00   0.00000000000000E+00
      0.00000000000000E+00   0.00000000000000E+00  -1.03632523726906E-18  -6.11885513182594E-17  -6.22248765555285E-17
     -5.32966493957379E-15  -2.17717475994513E+00  -2.17717475994513E+00   0.00000000000000E+00   0.00000000000000E+00
     -2.29532717617004E-17  -9.67508421334494E-16  -9.90461693096195E-16  -1.94523225912678E-15
      5.35434951989026E-02
      8.00000000000000E-01   8.00000000000000E-01   0.00000000000000E+00   0.00000000000000E+00   1.11868759099989E-15
      4.37037170478917E-19   1.11912462817036E-15   7.27779543639072E-15   0.00000000000000E+00   0.00000000000000E+00
      0.00000000000000E+00   0.00000000000000E+00  -1.03632456554336E-18  -6.14785734142043E-17  -6.25148979797476E-17
     -5.32777335272720E-15  -2.67717475994513E+00  -2.67717475994513E+00   0.00000000000000E+00   0.00000000000000E+00
     -2.29534307233749E-17  -1.03365629946724E-15  -1.05660973019062E-15  -1.95002208366351E-15
      6.35434951989026E-02
      8.00000000000000E-01   8.00000000000000E-01   0.00000000000000E+00   0.00000000000000E+00   1.17170526641346E-15
      3.11541358573184E-18   1.17482067999919E-15   7.27927155141790E-15   0.00000000000000E+00   0.00000000000000E+00
      0.00000000000000E+00   0.00000000000000E+00  -1.03632334180322E-18  -6.21714295698350E-17  -6.32077529116383E-17
     -5.32428993824183E-15  -3.17717475994513E+00  -3.17717475994513E+00   0.00000000000000E+00   0.00000000000000E+00
     -2.29535956055805E-17  -1.08865933148197E-15  -1.11161292708755E-15  -1.95498161317606E-15
      7.35434951989026E-02
      8.00000000000000E-01   8.00000000000000E-01   0.00000000000000E+00   0.00000000000000E+00   1.21326478348839E-15
      4.52735142068711E-18   1.21779213490907E-15   7.27903466414772E-15   0.00000000000000E+00   0.00000000000000E+00
      0.00000000000000E+00   0.00000000000000E+00  -1.03632148456467E-18  -6.34357123677200E-17  -6.44720338522847E-17
     -5.31889301640278E-15  -3.67717475994513E+00  -3.67717475994513E+00   0.00000000000000E+00   0.00000000000000E+00
     -2.29537674366461E-17  -1.13036633362014E-15  -1.15332010105679E-15  -1.96014164774493E-15
      8.35434951989026E-02
      8.00000000000000E-01   8.00000000000000E-01   0.00000000000000E+00   0.00000000000000E+00   1.24577973670673E-15
      7.64215892560192E-19   1.24654395259929E-15   7.27719511075542E-15   0.00000000000000E+00   0.00000000000000E+00
      0.00000000000000E+00   0.00000000000000E+00  -1.03631907233467E-18  -6.54334164235475E-17  -6.64697354958822E-17
     -5.31167281835542E-15  -4.17717475994513E+00  -4.17717475994513E+00   0.00000000000000E+00   0.00000000000000E+00
     -2.29539468976880E-17  -1.15712027020572E-15  -1.18007421710340E-15  -1.96552229240000E-15
      9.35434951989026E-02
      8.00000000000000E-01   8.00000000000000E-01   0.00000000000000E+00   0.00000000000000E+00   1.27158100258454E-15
     -2.21910874146482E-18   1.26936189384308E-15   7.27410622099963E-15   0.00000000000000E+00   0.00000000000000E+00
      0.00000000000000E+00   0.00000000000000E+00  -1.03631626164603E-18  -6.81132138322599E-17  -6.91495300939059E-17
     -5.30296926803455E-15  -4.67717475994513E+00  -4.67717475994513E+00   0.00000000000000E+00   0.00000000000000E+00
     -2.29541344521794E-17  -1.17725822929699E-15  -1.20021236374917E-15  -1.97113695296510E-15
      1.03543495198903E-01
      8.00000000000000E-01   8.00000000000000E-01   0.00000000000000E+00   0.00000000000000E+00   1.29178933472660E-15
      7.77487736155162E-18   1.29956421208815E-15   7.27009242946254E-15   0.00000000000000E+00   0.00000000000000E+00
      0.00000000000000E+00   0.00000000000000E+00  -1.03631318121699E-18  -7.09482510545394E-17  -7.19845642357564E-17
     -5.29309948004594E-15  -5.17717475994513E+00  -5.17717475994513E+00   0.00000000000000E+00   0.00000000000000E+00
     -2.29543303642048E-17  -1.20462531748819E-15  -1.22757964785239E-15  -1.97699294941656E-15
      1.13543495198903E-01
      8.00000000000000E-01   8.00000000000000E-01   0.00000000000000E+00   0.00000000000000E+00   1.30691855789550E-15
     -2.51689753616049E-19   1.30666686814188E-15   7.26536329262092E-15   0.00000000000000E+00   0.00000000000000E+00
      0.00000000000000E+00   0.00000000000000E+00  -1.03630990884447E-18  -7.30913624892221E-17  -7.41276723980665E-17
     -5.28227037592816E-15  -5.67717475994513E+00  -5.67717475994513E+00   0.00000000000000E+00   0.00000000000000E+00
     -2.29545347436204E-17  -1.20958466100019E-15  -1.23253919574381E-15  -1.98309291669276E-15
      1.23543495198903E-01
      8.00000000000000E-01   8.00000000000000E-01   0.00000000000000E+00   0.00000000000000E+00   1.31803102391731E-15
      2.56829832691435E-18   1.32059932224422E-15   7.26004101057921E-15   0.00000000000000E+00   0.00000000000000E+00
      0.00000000000000E+00   0.00000000000000E+00  -1.03630648831743E-18  -7.42976430130046E-17  -7.53339495013220E-17
     -5.27060430345027E-15  -6.17717475994513E+00  -6.17717475994513E+00   0.00000000000000E+00   0.00000000000000E+00
     -2.29547476086281E-17  -1.22231062513428E-15  -1.24526537274291E-15  -1.98943670712893E-15
      1.33543495198903E-01
      8.00000000000000E-01   8.00000000000000E-01   0.00000000000000E+00   0.00000000000000E+00   1.32650169800036E-15
     -2.17456791605785E-17   1.30475601883978E-15   7.25419695609717E-15   0.00000000000000E+00   0.00000000000000E+00
      0.00000000000000E+00   0.00000000000000E+00  -1.03630294536335E-18  -7.48379687224911E-17  -7.58742716678545E-17
     -5.25817424804607E-15  -6.67717475994513E+00  -6.67717475994513E+00   0.00000000000000E+00   0.00000000000000E+00
     -2.29549689293074E-17  -1.20592677824262E-15  -1.22888174717193E-15  -1.99602270805109E-15
      1.43543495198903E-01
      8.00000000000000E-01   8.00000000000000E-01   0.00000000000000E+00   0.00000000000000E+00   1.33330379851972E-15
      3.62694894433550E-18   1.33693074746405E-15   7.24787411214000E-15   0.00000000000000E+00   0.00000000000000E+00
      0.00000000000000E+00   0.00000000000000E+00  -1.03629929638663E-18  -7.49763237612634E-17  -7.60126230576500E-17
     -5.24502554442034E-15  -7.17717475994513E+00  -7.17717475994513E+00   0.00000000000000E+00   0.00000000000000E+00
     -2.29551986516464E-17  -1.23796292575476E-15  -1.26091812440641E-15  -2.00284856771963E-15
      1.53543495198903E-01
      8.00000000000000E-01   8.00000000000000E-01   0.00000000000000E+00   0.00000000000000E+00   1.33897366755617E-15
      1.21657192120709E-18   1.34019023947737E-15   7.24109895252201E-15   0.00000000000000E+00   0.00000000000000E+00
      0.00000000000000E+00   0.00000000000000E+00  -1.03629555273421E-18  -7.48685754897803E-17  -7.59048710425146E-17
     -5.23118737794901E-15  -7.67717475994513E+00  -7.67717475994513E+00   0.00000000000000E+00   0.00000000000000E+00
     -2.29554367100964E-17  -1.24132993172476E-15  -1.26428536843486E-15  -2.00991157457298E-15
      1.63543495198903E-01
      8.00000000000000E-01   8.00000000000000E-01   0.00000000000000E+00   0.00000000000000E+00   1.34379989517542E-15
     -4.50195214196085E-19   1.34334969996123E-15   7.23388758016515E-15   0.00000000000000E+00   0.00000000000000E+00
      0.00000000000000E+00   0.00000000000000E+00  -1.03629172278806E-18  -7.45749364271412E-17  -7.56112281499292E-17
     -5.21667872461621E-15  -8.17717475994513E+00  -8.17717475994513E+00   0.00000000000000E+00   0.00000000000000E+00
     -2.29556830341362E-17  -1.24478278877716E-15  -1.26773847181130E-15  -2.01720885554890E-15
      1.73543495198903E-01
      8.00000000000000E-01   8.00000000000000E-01   0.00000000000000E+00   0.00000000000000E+00   1.34796206183331E-15
      1.64895821952041E-17   1.36445164402851E-15   7.22624880019264E-15   0.00000000000000E+00   0.00000000000000E+00
      0.00000000000000E+00   0.00000000000000E+00  -1.03628781303477E-18  -7.41506096416513E-17  -7.51868974546860E-17
     -5.20151132247745E-15  -8.67717475994513E+00  -8.67717475994513E+00   0.00000000000000E+00   0.00000000000000E+00
     -2.29559375516342E-17  -1.26630880902219E-15  -1.28926474657383E-15  -2.02473747771517E-15
      1.83543495198903E-01
      8.00000000000000E-01   8.00000000000000E-01   0.00000000000000E+00   0.00000000000000E+00   1.35159977122230E-15
      1.25412746898050E-17   1.36414104591210E-15   7.21818534076591E-15   0.00000000000000E+00   0.00000000000000E+00
      0.00000000000000E+00   0.00000000000000E+00  -1.03628382862460E-18  -7.36028590127767E-17  -7.46391428414013E-17
     -5.18569084949431E-15  -9.17717475994513E+00  -9.17717475994513E+00   0.00000000000000E+00   0.00000000000000E+00
     -2.29562001902512E-17  -1.26654570288045E-15  -1.28950190307070E-15  -2.03249449127163E-15
      1.93543495198903E-01
      8.00000000000000E-01   8.00000000000000E-01   0.00000000000000E+00   0.00000000000000E+00   1.35483250681481E-15
     -6.62486967632196E-18   1.34820763713849E-15   7.20969365433940E-15   0.00000000000000E+00   0.00000000000000E+00
      0.00000000000000E+00   0.00000000000000E+00  -1.03627977364190E-18  -7.29337619400422E-17  -7.39700417136841E-17
     -5.16921672628423E-15  -9.67717475994513E+00  -9.67717475994513E+00   0.00000000000000E+00   0.00000000000000E+00
     -2.29564708773474E-17  -1.25128112454746E-15  -1.27423759542481E-15  -2.04047692805518E-15
      2.03543495198903E-01
      8.00000000000000E-01   8.00000000000000E-01   0.00000000000000E+00   0.00000000000000E+00   1.35774682001475E-15
     -1.18793388106306E-18   1.35655888613369E-15   7.20076230619050E-15   0.00000000000000E+00   0.00000000000000E+00
      0.00000000000000E+00   0.00000000000000E+00  -1.03627565117916E-18  -7.20446124242681E-17  -7.30808880754473E-17
     -5.15208054887856E-15  -1.01771747599451E+01  -1.01771747599451E+01   0.00000000000000E+00   0.00000000000000E+00
     -2.29567495384447E-17  -1.26052124851980E-15  -1.28347799805824E-15  -2.04868175731196E-15
      2.13543495198903E-01
      8.00000000000000E-01   8.00000000000000E-01   0.00000000000000E+00   0.00000000000000E+00   1.36041212102909E-15
      9.64429749782636E-18   1.37005641852692E-15   7.19136870747539E-15   0.00000000000000E+00   0.00000000000000E+00
      0.00000000000000E+00   0.00000000000000E+00  -1.03627146325213E-18  -7.06855072464313E-17  -7.17217787096834E-17
     -5.13426291308294E-15  -1.06771747599451E+01  -1.06771747599451E+01   0.00000000000000E+00   0.00000000000000E+00
     -2.29570360940704E-17  -1.27537760372317E-15  -1.29833463981724E-15  -2.05710579439245E-15
      2.23543495198903E-01
      8.00000000000000E-01   8.00000000000000E-01   0.00000000000000E+00   0.00000000000000E+00   1.36290520681729E-15
      1.22484908878811E-17   1.37515369770517E-15   7.18147394481854E-15   0.00000000000000E+00   0.00000000000000E+00
      0.00000000000000E+00   0.00000000000000E+00  -1.03626721058187E-18  -6.78546797453521E-17  -6.88909469559340E-17
     -5.11572838501160E-15  -1.11771747599451E+01  -1.11771747599451E+01   0.00000000000000E+00   0.00000000000000E+00
     -2.29573304548723E-17  -1.28330542029437E-15  -1.30626275074924E-15  -2.06574555980690E-15
      2.33543495198903E-01
      8.00000000000000E-01   8.00000000000000E-01   0.00000000000000E+00   0.00000000000000E+00   1.36528486629067E-15
      2.69554852861181E-18   1.36798041481928E-15   7.17101642421688E-15   0.00000000000000E+00   0.00000000000000E+00
      0.00000000000000E+00   0.00000000000000E+00  -1.03626289234377E-18  -5.99926206568594E-17  -6.10288835492032E-17
     -5.09641930818269E-15  -1.16771747599451E+01  -1.16771747599451E+01   0.00000000000000E+00   0.00000000000000E+00
     -2.29576325159418E-17  -1.28399389875414E-15  -1.30695153127008E-15  -2.07459711603421E-15
      2.43543495198903E-01
      8.00000000000000E-01   8.00000000000000E-01   0.00000000000000E+00   0.00000000000000E+00   1.36759360488124E-15
     -7.91668204446652E-18   1.35967692283677E-15   7.15990959849131E-15   0.00000000000000E+00   0.00000000000000E+00
      0.00000000000000E+00   0.00000000000000E+00  -1.03625850631176E-18  -3.45625853528065E-17  -3.55988438591183E-17
     -5.07625355958784E-15  -1.21771747599451E+01  -1.21771747599451E+01   0.00000000000000E+00   0.00000000000000E+00
     -2.29579421556723E-17  -1.30112013682198E-15  -1.32407807897765E-15  -2.08365603890348E-15
      2.53543495198903E-01
      8.00000000000000E-01   8.00000000000000E-01   0.00000000000000E+00   0.00000000000000E+00   1.36986419367302E-15
      9.62356807083407E-19   1.37082655048010E-15   7.14806214260618E-15   0.00000000000000E+00   0.00000000000000E+00
      0.00000000000000E+00   0.00000000000000E+00  -1.03625405068098E-18   5.22778705787926E-17   5.12416165281116E-17
     -5.05514410748839E-15  -1.26771747599451E+01  -1.26771747599451E+01   0.00000000000000E+00   0.00000000000000E+00
     -2.29582592567406E-17  -1.39910990775147E-15  -1.42206816700821E-15  -2.09291803511777E-15
      2.63543495198903E-01
      8.00000000000000E-01   8.00000000000000E-01   0.00000000000000E+00   0.00000000000000E+00   1.37210561963664E-15
      2.86322990484468E-17   1.40073791868509E-15   7.13545079103589E-15   0.00000000000000E+00   0.00000000000000E+00
      0.00000000000000E+00   0.00000000000000E+00  -1.03624952932971E-18   3.51514334806366E-16   3.50478085277036E-16
     -5.03306979838762E-15  -1.31771747599451E+01  -1.31771747599451E+01   0.00000000000000E+00   0.00000000000000E+00
     -2.29585837764861E-17  -1.72825742018564E-15  -1.75121600396212E-15  -2.10238099264824E-15
      2.73543495198903E-01
      8.00000000000000E-01   8.00000000000000E-01   0.00000000000000E+00   0.00000000000000E+00   1.37428164957570E-15
     -4.29167449863487E-18   1.36998997507706E-15   7.12221655667462E-15   0.00000000000000E+00   0.00000000000000E+00
      0.00000000000000E+00   0.00000000000000E+00  -1.03624495764062E-18   1.36957567486556E-15   1.36853942990792E-15
     -5.01016902450831E-15  -1.36771747599451E+01  -1.36771747599451E+01   0.00000000000000E+00   0.00000000000000E+00
     -2.29589158352220E-17  -2.71557048914976E-15  -2.73852940498498E-15  -2.11204753216629E-15
      2.83543495198903E-01
      8.00000000000000E-01   8.00000000000000E-01   0.00000000000000E+00   0.00000000000000E+00   1.37631545299792E-15
     -1.79626156031929E-17   1.35835283739473E-15   7.10863831248149E-15   0.00000000000000E+00   0.00000000000000E+00
      0.00000000000000E+00   0.00000000000000E+00  -1.03624035888926E-18   4.74705355742438E-15   4.74601731706549E-15
     -4.98671426579053E-15  -1.41771747599451E+01  -1.41771747599451E+01   0.00000000000000E+00   0.00000000000000E+00
     -2.29592556845374E-17  -6.08141089877571E-15  -6.10437015446024E-15  -2.12192404669095E-15
      2.93543495198903E-01
      8.00000000000000E-01   8.00000000000000E-01   0.00000000000000E+00   0.00000000000000E+00   1.37812007990564E-15
     -1.42076424335416E-18   1.37669931566229E-15   7.09497922612160E-15   0.00000000000000E+00   0.00000000000000E+00
      0.00000000000000E+00   0.00000000000000E+00  -1.03623575282015E-18   1.55982291074298E-14   1.55971928716770E-14
     -4.96296285915832E-15  -1.46771747599451E+01  -1.46771747599451E+01   0.00000000000000E+00   0.00000000000000E+00
     -2.29596035589018E-17  -1.69509325837804E-14  -1.69738921873393E-14  -2.13201636696328E-15
      3.03543495198903E-01
      8.00000000000000E-01   8.00000000000000E-01   0.00000000000000E+00   0.00000000000000E+00   1.37961076446826E-15
     -1.34321687610686E-17   1.36617859570720E-15   7.08140289726597E-15   0.00000000000000E+00  -9.18447372075268E-17
      0.00000000000000E+00   0.00000000000000E+00  -1.03623114991255E-18   4.92542853659890E-14   4.92532491348390E-14
     -4.93907538143143E-15  -1.51771747599451E+01  -1.51771747599451E+01   0.00000000000000E+00   0.00000000000000E+00
     -2.29599595979411E-17  -5.05964677709484E-14  -5.06194277305463E-14  -2.14232751583454E-15
      3.13543495198903E-01
      8.00000000000000E-01   8.00000000000000E-01   0.00000000000000E+00   0.00000000000000E+00   1.38068836402136E-15
     -5.21332484086367E-17   1.32855511561272E-15   7.06799256477136E-15   0.00000000000000E+00  -1.83689474415054E-16
      0.00000000000000E+00   0.00000000000000E+00  -1.03622652468796E-18   1.49877506841374E-13   1.49876470614850E-13
     -4.91513426542789E-15  -1.56771747599451E+01  -1.56771747599451E+01   0.00000000000000E+00   0.00000000000000E+00
     -2.29603238661044E-17  -1.51182065406596E-13  -1.51205025730463E-13  -2.15285829934347E-15
      3.23543495198903E-01
      8.00000000000000E-01   8.00000000000000E-01   0.00000000000000E+00   0.00000000000000E+00   1.38120384697033E-15
      3.48293456349661E-18   1.38468678153383E-15   7.05479003379642E-15   0.00000000000000E+00  -4.59223686037634E-16
      0.00000000000000E+00   0.00000000000000E+00  -1.03622192219888E-18   4.39573066381846E-13   4.39572030159924E-13
     -4.89118163018409E-15  -1.61771747599451E+01  -1.61771747599451E+01   0.00000000000000E+00   0.00000000000000E+00
     -2.29606963900446E-17  -4.40933756245068E-13  -4.40956716941458E-13  -2.16360840361234E-15
      3.33543495198903E-01
      8.00000000000000E-01   8.00000000000000E-01   0.00000000000000E+00   0.00000000000000E+00   1.38088513883582E-15
      2.79494661532582E-17   1.40883460498908E-15   7.04182028637725E-15   0.00000000000000E+00  -1.28582632090537E-15
      0.00000000000000E+00   0.00000000000000E+00  -1.03621667274915E-18   1.24195971201992E-12   1.24195867580325E-12
     -4.86724317228495E-15  -1.66771747599451E+01  -1.66771747599451E+01   0.00000000000000E+00   0.00000000000000E+00
     -2.29610771832869E-17  -1.24334454933105E-12  -1.24336751040823E-12  -2.17457711409228E-15
      3.43543495198903E-01
      8.00000000000000E-01   8.00000000000000E-01   0.00000000000000E+00   0.00000000000000E+00   1.37916116709368E-15
     -1.89067123406848E-17   1.36025445475299E-15   7.02910405100136E-15   0.00000000000000E+00  -3.39825527667849E-15
      0.00000000000000E+00   0.00000000000000E+00  -1.03621153740405E-18   3.37778289828937E-12   3.37778186207783E-12
     -4.84334026428432E-15  -1.71771747599451E+01  -1.71771747599451E+01   0.00000000000000E+00   0.00000000000000E+00
     -2.29614662625494E-17  -3.37911915506632E-12  -3.37914211653258E-12  -2.18576378671702E-15
      3.53543495198903E-01
      8.00000000000000E-01   8.00000000000000E-01   0.00000000000000E+00   0.00000000000000E+00   1.37478073865283E-15
     -7.50868995676495E-18   1.36727204869606E-15   7.01666495425457E-15   0.00000000000000E+00  -8.81709477192257E-15
      0.00000000000000E+00   0.00000000000000E+00  -1.03620528620010E-18   8.83443002340914E-12   8.83442898720385E-12
     -4.81949659602776E-15  -1.76771747599451E+01  -1.76771747599451E+01   0.00000000000000E+00   0.00000000000000E+00
     -2.29618636656663E-17  -8.83577329738898E-12  -8.83579625925264E-12  -2.19716835822681E-15
      3.63543495198903E-01
      8.00000000000000E-01   8.00000000000000E-01   0.00000000000000E+00   0.00000000000000E+00   1.36513759768549E-15
     -1.07494952893834E-17   1.35438810239611E-15   7.00453542179617E-15   0.00000000000000E+00  -2.22264264042215E-14
      0.00000000000000E+00   0.00000000000000E+00  -1.03619447635022E-18   2.21922488268840E-11   2.21922477906895E-11
     -4.79574321859501E-15  -1.81771747599451E+01  -1.81771747599451E+01   0.00000000000000E+00   0.00000000000000E+00
     -2.29622694819465E-17  -2.21935792165225E-11  -2.21936021787920E-11  -2.20879220320117E-15
      3.73543495198903E-01
      8.00000000000000E-01   8.00000000000000E-01   0.00000000000000E+00   0.00000000000000E+00   1.34542254397993E-15
      6.46317876173328E-18   1.35188572274166E-15   6.99276377379083E-15   0.00000000000000E+00  -5.34536370547806E-14
      0.00000000000000E+00   0.00000000000000E+00  -1.03617321225758E-18   5.34531789398335E-11   5.34531779036603E-11
     -4.77212404201589E-15  -1.86771747599451E+01  -1.86771747599451E+01   0.00000000000000E+00   0.00000000000000E+00
     -2.29626839090514E-17  -5.34545068266995E-11  -5.34545297893834E-11  -2.22063973177496E-15
      3.83543495198903E-01
      8.00000000000000E-01   8.00000000000000E-01   0.00000000000000E+00   0.00000000000000E+00   1.30849899887993E-15
     -7.98952682206650E-18   1.30050947205786E-15   6.98142406726478E-15   0.00000000000000E+00  -1.23163792595293E-13
      0.00000000000000E+00   0.00000000000000E+00  -1.03612988867011E-18   1.23171569870691E-10   1.23171568834561E-10
     -4.74870283755628E-15  -1.91771747599451E+01  -1.91771747599450E+01   0.00000000000000E+00   0.00000000000000E+00
     -2.29631073544915E-17  -1.23172846380924E-10  -1.23172869344031E-10  -2.23272122970850E-15
      3.93543495198903E-01
      8.00000000000000E-01   8.00000000000000E-01   0.00000000000000E+00   0.00000000000000E+00   1.24757940362028E-15
      6.26185749223386E-18   1.25384126111252E-15   6.97062905997367E-15   0.00000000000000E+00  -2.70666440550581E-13
      0.00000000000000E+00   0.00000000000000E+00  -1.03604861794346E-18   2.70702612439395E-10   2.70702611403347E-10
     -4.72557168556286E-15  -1.96771747599451E+01  -1.96771747599449E+01   0.00000000000000E+00   0.00000000000000E+00
     -2.29635405977695E-17  -2.70703842281065E-10  -2.70703865244605E-10  -2.24505737441086E-15
      4.03543495198903E-01
      8.00000000000000E-01   8.00000000000000E-01   0.00000000000000E+00   0.00000000000000E+00   1.16229485099526E-15
      1.09036591165610E-17   1.17319851011182E-15   6.96054393299301E-15   0.00000000000000E+00  -5.65212512775120E-13
      0.00000000000000E+00   0.00000000000000E+00  -1.03591749797027E-18   5.65254162641466E-10   5.65254161605549E-10
     -4.70285871237725E-15  -2.01771747599451E+01  -2.01771747599446E+01   0.00000000000000E+00   0.00000000000000E+00
     -2.29639850067846E-17  -5.65255311840073E-10  -5.65255334804058E-10  -2.25768522061577E-15
      4.13543495198903E-01
      8.00000000000000E-01   8.00000000000000E-01   0.00000000000000E+00   0.00000000000000E+00   1.06201122686952E-15
     -1.42978080042627E-17   1.04771341886526E-15   6.95139358685329E-15   0.00000000000000E+00  -1.11646462549470E-12
      0.00000000000000E+00   0.00000000000000E+00  -1.03573791924837E-18   1.11649768035835E-09   1.11649767932261E-09
     -4.68072975305503E-15  -2.06771747599451E+01  -2.06771747599440E+01   0.00000000000000E+00   0.00000000000000E+00
     -2.29644427445903E-17  -1.11649870407158E-09  -1.11649872703602E-09  -2.27066383379828E-15
      4.23543495198903E-01
      8.00000000000000E-01   8.00000000000000E-01   0.00000000000000E+00   0.00000000000000E+00   9.59989113624558E-16
      3.49903168331801E-18   9.63488145307876E-16   6.94345211735293E-15   0.00000000000000E+00  -2.07752795563426E-12
      0.00000000000000E+00   0.00000000000000E+00  -1.03552099995119E-18   2.07753084761364E-09   2.07753084657812E-09
     -4.65937649906335E-15  -2.11771747599451E+01  -2.11771747599431E+01   0.00000000000000E+00   0.00000000000000E+00
     -2.29649168257035E-17  -2.07753178710140E-09  -2.07753181006632E-09  -2.28407561828959E-15
      4.33543495198903E-01
      8.00000000000000E-01   8.00000000000000E-01   0.00000000000000E+00   0.00000000000000E+00   8.65504074715181E-16
     -2.35021959874988E-17   8.42001878727682E-16   6.93700677295535E-15   0.00000000000000E+00  -3.63227566708327E-12
      0.00000000000000E+00   0.00000000000000E+00  -1.03527520457884E-18   3.63227032721845E-09   3.63227032618317E-09
     -4.63898767034506E-15  -2.16771747599451E+01  -2.16771747599415E+01   0.00000000000000E+00   0.00000000000000E+00
     -2.29654108686472E-17  -3.63227114521969E-09  -3.63227116818510E-09  -2.29801910261027E-15
      4.43543495198903E-01
      8.00000000000000E-01   8.00000000000000E-01   0.00000000000000E+00   0.00000000000000E+00   7.82558025471355E-16
      4.69040748328751E-18   7.87248432954642E-16   6.93230467470382E-15   0.00000000000000E+00  -5.96696888689860E-12
      0.00000000000000E+00   0.00000000000000E+00  -1.03500134565409E-18   5.96693466259663E-09   5.96693466156162E-09
     -4.61971148348355E-15  -2.21771747599451E+01  -2.21771747599392E+01   0.00000000000000E+00   0.00000000000000E+00
     -2.29659285405906E-17  -5.96693542584414E-09  -5.96693544881007E-09  -2.31259319122029E-15
      4.53543495198903E-01
      8.00000000000000E-01   8.00000000000000E-01   0.00000000000000E+00   0.00000000000000E+00   7.11771162499908E-16
      7.26055015330111E-19   7.12497217515238E-16   6.92950703481815E-15   0.00000000000000E+00  -9.23746813412142E-12
      0.00000000000000E+00   0.00000000000000E+00  -1.03469463564585E-18   9.23749632146831E-09   9.23749632043361E-09
     -4.60162752209763E-15  -2.26771747599451E+01  -2.26771747599359E+01   0.00000000000000E+00   0.00000000000000E+00
     -2.29664729268402E-17  -9.23749700996410E-09  -9.23749703293057E-09  -2.32787951272051E-15
      4.63543495198903E-01
      8.00000000000000E-01   8.00000000000000E-01   0.00000000000000E+00   0.00000000000000E+00   6.51697977782086E-16
     -1.43660164923407E-18   6.50261376132852E-16   6.92867266171079E-15   0.00000000000000E+00  -1.35488437881171E-11