DF-ISE text

Info {
  version   = 1.0
  type      = xyplot
  datasets  = [
    "time"
    "Ntop OuterVoltage" "Ntop InnerVoltage" "Ntop QuasiFermiPotential" "Ntop DisplacementCurrent" "Ntop eCurrent"
    "Ntop hCurrent" "Ntop TotalCurrent" "Ntop Charge" "Ptop OuterVoltage" "Ptop InnerVoltage"
    "Ptop QuasiFermiPotential" "Ptop DisplacementCurrent" "Ptop eCurrent" "Ptop hCurrent" "Ptop TotalCurrent"
    "Ptop Charge" "Pbot OuterVoltage" "Pbot InnerVoltage" "Pbot QuasiFermiPotential" "Pbot DisplacementCurrent"
    "Pbot eCurrent" "Pbot hCurrent" "Pbot TotalCurrent" "Pbot Charge" ]
  functions = [
    Time
    OuterVoltage InnerVoltage QuasiFermiPotential DisplacementCurrent eCurrent
    hCurrent TotalCurrent Charge OuterVoltage InnerVoltage
    QuasiFermiPotential DisplacementCurrent eCurrent hCurrent TotalCurrent
    Charge OuterVoltage InnerVoltage QuasiFermiPotential DisplacementCurrent
    eCurrent hCurrent TotalCurrent Charge ]
}

Data {
      1.00000000000000E-03
      8.00000000000000E-01   8.00000000000000E-01   0.00000000000000E+00   0.00000000000000E+00   5.59612452963432E-16
     -6.62120723803733E-19   5.58950332239628E-16   3.74335103451259E-15   0.00000000000000E+00   0.00000000000000E+00
      0.00000000000000E+00   0.00000000000000E+00  -1.03632168372339E-18  -6.62676659702462E-17  -6.73039876539696E-17
     -1.81776687699565E-15  -5.00000000000000E-02  -5.00000000000000E-02   0.00000000000000E+00   0.00000000000000E+00
     -2.29526236898023E-17  -4.68693720895857E-16  -4.91646344585659E-16  -1.92558415751694E-15
      2.91111111111111E-03
      8.00000000000000E-01   8.00000000000000E-01   0.00000000000000E+00   0.00000000000000E+00   5.91233769037402E-16
     -8.46537101782880E-19   5.90387231935619E-16   3.74423214136752E-15   0.00000000000000E+00   0.00000000000000E+00
      0.00000000000000E+00   0.00000000000000E+00  -1.03632168307791E-18  -6.61312654155033E-17  -6.71675870985812E-17
     -1.81776463716419E-15  -1.45555555555556E-01  -1.45555555555555E-01   0.00000000000000E+00   0.00000000000000E+00
     -2.29526526211058E-17  -5.00266992215933E-16  -5.23219644837038E-16  -1.92646750420333E-15
      6.56345679012346E-03
      8.00000000000000E-01   8.00000000000000E-01   0.00000000000000E+00   0.00000000000000E+00   6.47719989456169E-16
     -5.76429967134696E-20   6.47662346459455E-16   3.74591130945667E-15   0.00000000000000E+00   0.00000000000000E+00
      0.00000000000000E+00   0.00000000000000E+00  -1.03632168107614E-18  -6.58967482813146E-17  -6.69330699623907E-17
     -1.81775769137861E-15  -3.28172839506173E-01  -3.28172839506173E-01   0.00000000000000E+00   0.00000000000000E+00
     -2.29527079224322E-17  -5.57776568574632E-16  -5.80729276497064E-16  -1.92815361807806E-15
      1.35434951989026E-02
      8.00000000000000E-01   8.00000000000000E-01   0.00000000000000E+00   0.00000000000000E+00   7.44935426683713E-16
      3.83322398104576E-19   7.45318749081817E-16   3.74909441731680E-15   0.00000000000000E+00   0.00000000000000E+00
      0.00000000000000E+00   0.00000000000000E+00  -1.03632167187940E-18  -6.55306280279567E-17  -6.65669496998361E-17
     -1.81772578355587E-15  -6.77174759945130E-01  -6.77174759945130E-01   0.00000000000000E+00   0.00000000000000E+00
     -2.29528136060370E-17  -6.55798985775944E-16  -6.78751799381981E-16  -1.93136863376093E-15
      2.35434951989026E-02
      8.00000000000000E-01   8.00000000000000E-01   0.00000000000000E+00   0.00000000000000E+00   8.66998604996466E-16
     -1.15120906302937E-18   8.65847395933436E-16   3.75352614368573E-15   0.00000000000000E+00   0.00000000000000E+00
      0.00000000000000E+00   0.00000000000000E+00  -1.03632162582072E-18  -6.51340516592244E-17  -6.61703732850452E-17
     -1.81756604979377E-15  -1.17717475994513E+00  -1.17717475994513E+00   0.00000000000000E+00   0.00000000000000E+00
     -2.29529649633229E-17  -7.76724057685068E-16  -7.99677022648391E-16  -1.93596009389195E-15
      3.35434951989026E-02
      8.00000000000000E-01   8.00000000000000E-01   0.00000000000000E+00   0.00000000000000E+00   9.72490167753181E-16
     -1.05884856601339E-18   9.71431319187168E-16   3.75756578897028E-15   0.00000000000000E+00   0.00000000000000E+00
      0.00000000000000E+00   0.00000000000000E+00  -1.03632146669740E-18  -6.49607346807945E-17  -6.59970561474919E-17
     -1.81701447818697E-15  -1.67717475994513E+00  -1.67717475994513E+00   0.00000000000000E+00   0.00000000000000E+00
     -2.29531167108127E-17  -8.82481146328862E-16  -9.05434263039675E-16  -1.94055131078329E-15
      4.35434951989026E-02
      8.00000000000000E-01   8.00000000000000E-01   0.00000000000000E+00   0.00000000000000E+00   1.05938332392448E-15
     -6.25314324305176E-18   1.05313018068143E-15   3.76064949486088E-15   0.00000000000000E+00   0.00000000000000E+00
      0.00000000000000E+00   0.00000000000000E+00  -1.03632101829122E-18  -6.51176388436852E-17  -6.61539598619764E-17
     -1.81545875278959E-15  -2.17717475994513E+00  -2.17717475994513E+00   0.00000000000000E+00   0.00000000000000E+00
     -2.29532703851452E-17  -9.64022950434305E-16  -9.86976220819450E-16  -1.94519074207128E-15
      5.35434951989026E-02
      8.00000000000000E-01   8.00000000000000E-01   0.00000000000000E+00   0.00000000000000E+00   1.13121211922794E-15
      3.09896072674860E-18   1.13431107995468E-15   3.76179406899681E-15   0.00000000000000E+00   0.00000000000000E+00
      0.00000000000000E+00   0.00000000000000E+00  -1.03631998925328E-18  -6.58214743662578E-17  -6.68577943555111E-17
     -1.81186664604946E-15  -2.67717475994513E+00  -2.67717475994513E+00   0.00000000000000E+00   0.00000000000000E+00
     -2.29534275790821E-17  -1.04449985802009E-15  -1.06745328559917E-15  -1.94992742294734E-15
      6.35434951989026E-02
      8.00000000000000E-01   8.00000000000000E-01   0.00000000000000E+00   0.00000000000000E+00   1.19056810089455E-15
      8.49821436632804E-18   1.19906631526088E-15   3.75998719779609E-15   0.00000000000000E+00   0.00000000000000E+00
      0.00000000000000E+00   0.00000000000000E+00  -1.03631811195576E-18  -6.74406644259486E-17  -6.84769825379044E-17
     -1.80518632504981E-15  -3.17717475994513E+00  -3.17717475994513E+00   0.00000000000000E+00   0.00000000000000E+00
     -2.29535895919368E-17  -1.10763574313104E-15  -1.13058933272297E-15  -1.95480087274628E-15
      7.35434951989026E-02
      8.00000000000000E-01   8.00000000000000E-01   0.00000000000000E+00   0.00000000000000E+00   1.23807365955474E-15
     -1.98033122271406E-18   1.23609332833202E-15   3.75509404795286E-15   0.00000000000000E+00   0.00000000000000E+00
      0.00000000000000E+00   0.00000000000000E+00  -1.03631541396763E-18  -7.03770443469712E-17  -7.14133597609389E-17
     -1.79524638523308E-15  -3.67717475994513E+00  -3.67717475994513E+00   0.00000000000000E+00   0.00000000000000E+00
     -2.29537576394832E-17  -1.14172621093160E-15  -1.16467996857109E-15  -1.95984766271978E-15
      8.35434951989026E-02
      8.00000000000000E-01   8.00000000000000E-01   0.00000000000000E+00   0.00000000000000E+00   1.27478685710191E-15
      8.66932159738795E-18   1.28345617869930E-15   3.74791723317165E-15   0.00000000000000E+00   0.00000000000000E+00
      0.00000000000000E+00   0.00000000000000E+00  -1.03631217921765E-18  -7.45267619387187E-17  -7.55630741179364E-17
     -1.78281649500962E-15  -4.17717475994513E+00  -4.17717475994513E+00   0.00000000000000E+00   0.00000000000000E+00
     -2.29539328275589E-17  -1.18493917175381E-15  -1.20789310458136E-15  -1.96510073816202E-15
      9.35434951989026E-02
      8.00000000000000E-01   8.00000000000000E-01   0.00000000000000E+00   0.00000000000000E+00   1.30151134150046E-15
      2.71410680331819E-18   1.30422544830378E-15   3.73927425745816E-15   0.00000000000000E+00   0.00000000000000E+00
      0.00000000000000E+00   0.00000000000000E+00  -1.03630864883344E-18  -7.86649094846784E-17  -7.97012181335118E-17
     -1.76869364765179E-15  -4.67717475994513E+00  -4.67717475994513E+00   0.00000000000000E+00   0.00000000000000E+00
     -2.29541158552012E-17  -1.20157011431506E-15  -1.22452423017026E-15  -1.97058060980637E-15
      1.03543495198903E-01
      8.00000000000000E-01   8.00000000000000E-01   0.00000000000000E+00   0.00000000000000E+00   1.31926080083763E-15
      4.02071814818474E-18   1.32328151898581E-15   3.72963146570133E-15   0.00000000000000E+00   0.00000000000000E+00
      0.00000000000000E+00   0.00000000000000E+00  -1.03630494322080E-18  -8.12080755032941E-17  -8.22443804465149E-17
     -1.75333555969290E-15  -5.17717475994513E+00  -5.17717475994513E+00   0.00000000000000E+00   0.00000000000000E+00
     -2.29543070293231E-17  -1.21808283150998E-15  -1.24103713853930E-15  -1.97629590600842E-15
      1.13543495198903E-01
      8.00000000000000E-01   8.00000000000000E-01   0.00000000000000E+00   0.00000000000000E+00   1.33072824644597E-15
      5.88495503475133E-18   1.33661320148072E-15   3.71921329011217E-15   0.00000000000000E+00   0.00000000000000E+00
      0.00000000000000E+00   0.00000000000000E+00  -1.03630111527600E-18  -8.21251957282585E-17  -8.31614968435345E-17
     -1.73696450470327E-15  -5.67717475994513E+00  -5.67717475994513E+00   0.00000000000000E+00   0.00000000000000E+00
     -2.29545064429365E-17  -1.23049719819425E-15  -1.25345170463719E-15  -1.98224878540890E-15
      1.23543495198903E-01
      8.00000000000000E-01   8.00000000000000E-01   0.00000000000000E+00   0.00000000000000E+00   1.33865612212350E-15
      6.96868632303329E-18   1.34562480844654E-15   3.70811689643959E-15   0.00000000000000E+00   0.00000000000000E+00
      0.00000000000000E+00   0.00000000000000E+00  -1.03629718905889E-18  -8.20895210568597E-17  -8.31258182459186E-17
     -1.71967859939774E-15  -6.17717475994513E+00  -6.17717475994513E+00   0.00000000000000E+00   0.00000000000000E+00
     -2.29547140862486E-17  -1.23954427611437E-15  -1.26249899020062E-15  -1.98843829704185E-15
      1.33543495198903E-01
      8.00000000000000E-01   8.00000000000000E-01   0.00000000000000E+00   0.00000000000000E+00   1.34466108120329E-15
     -1.55433648525103E-18   1.34310674471804E-15   3.69636341731651E-15   0.00000000000000E+00   0.00000000000000E+00
      0.00000000000000E+00   0.00000000000000E+00  -1.03629317559941E-18  -8.15937913630669E-17  -8.26300845386663E-17
     -1.70150164566315E-15  -6.67717475994513E+00  -6.67717475994513E+00   0.00000000000000E+00   0.00000000000000E+00
     -2.29549298926027E-17  -1.23752173028677E-15  -1.26047666017937E-15  -1.99486177165337E-15
      1.43543495198903E-01
      8.00000000000000E-01   8.00000000000000E-01   0.00000000000000E+00   0.00000000000000E+00   1.34954387153059E-15
     -1.59660190058941E-17   1.33357785252469E-15   3.68391312195337E-15   0.00000000000000E+00   0.00000000000000E+00
      0.00000000000000E+00   0.00000000000000E+00  -1.03628907857303E-18  -8.08106282608529E-17  -8.18469173394259E-17
     -1.68239786013394E-15  -7.17717475994513E+00  -7.17717475994513E+00   0.00000000000000E+00   0.00000000000000E+00
     -2.29551537528344E-17  -1.22877578143243E-15  -1.25173093518527E-15  -2.00151526181943E-15
      1.53543495198903E-01
      8.00000000000000E-01   8.00000000000000E-01   0.00000000000000E+00   0.00000000000000E+00   1.35370441315612E-15
     -5.58496727836261E-18   1.34811944587776E-15   3.67066690482948E-15   0.00000000000000E+00   0.00000000000000E+00
      0.00000000000000E+00   0.00000000000000E+00  -1.03628489648391E-18  -7.98931393525784E-17  -8.09294242490623E-17
     -1.66227326176023E-15  -7.67717475994513E+00  -7.67717475994513E+00   0.00000000000000E+00   0.00000000000000E+00
     -2.29553855183069E-17  -1.24423463611039E-15  -1.26719002162870E-15  -2.00839364306924E-15
      1.63543495198903E-01
      8.00000000000000E-01   8.00000000000000E-01   0.00000000000000E+00   0.00000000000000E+00   1.35736270778963E-15
     -9.08254244523917E-18   1.34828016534440E-15   3.65648553088590E-15   0.00000000000000E+00   0.00000000000000E+00
      0.00000000000000E+00   0.00000000000000E+00  -1.03628062540231E-18  -7.88597432916164E-17  -7.98960239170187E-17
     -1.64099439057571E-15  -8.17717475994513E+00  -8.17717475994513E+00   0.00000000000000E+00   0.00000000000000E+00
     -2.29556250183626E-17  -1.24542851640901E-15  -1.26838414142738E-15  -2.01549114031019E-15
      1.73543495198903E-01
      8.00000000000000E-01   8.00000000000000E-01   0.00000000000000E+00   0.00000000000000E+00   1.36062890930300E-15
     -3.46081293469873E-19   1.36028282800953E-15   3.64129218015337E-15   0.00000000000000E+00   0.00000000000000E+00
      0.00000000000000E+00   0.00000000000000E+00  -1.03627626709859E-18  -7.77161205188680E-17  -7.87523967859665E-17
     -1.61848839062875E-15  -8.67717475994513E+00  -8.67717475994513E+00   0.00000000000000E+00   0.00000000000000E+00
     -2.29558721433564E-17  -1.25857455908020E-15  -1.28153043122356E-15  -2.02280378952461E-15
      1.83543495198903E-01
      8.00000000000000E-01   8.00000000000000E-01   0.00000000000000E+00   0.00000000000000E+00   1.36355214303971E-15
     -1.53692144521374E-18   1.36201522159449E-15   3.62525222174325E-15   0.00000000000000E+00   0.00000000000000E+00
      0.00000000000000E+00   0.00000000000000E+00  -1.03627184084740E-18  -7.63616355067439E-17  -7.73979073475913E-17
     -1.59491862498165E-15  -9.17717475994513E+00  -9.17717475994513E+00   0.00000000000000E+00   0.00000000000000E+00
     -2.29561269859311E-17  -1.26166118726097E-15  -1.28461731424690E-15  -2.03033359676160E-15
      1.93543495198903E-01
      8.00000000000000E-01   8.00000000000000E-01   0.00000000000000E+00   0.00000000000000E+00   1.36611830539508E-15
     -2.27685120492898E-18   1.36384145419015E-15   3.60875408302896E-15   0.00000000000000E+00   0.00000000000000E+00
      0.00000000000000E+00   0.00000000000000E+00  -1.03626737928044E-18  -7.43575186211274E-17  -7.53937860004078E-17
     -1.57066611998672E-15  -9.67717475994513E+00  -9.67717475994513E+00   0.00000000000000E+00   0.00000000000000E+00
     -2.29563898229892E-17  -1.26549127836675E-15  -1.28844766818974E-15  -2.03808796304223E-15
      2.03543495198903E-01
      8.00000000000000E-01   8.00000000000000E-01   0.00000000000000E+00   0.00000000000000E+00   1.36829786070657E-15
      2.39054476280470E-18   1.37068840546938E-15   3.59214588021101E-15   0.00000000000000E+00   0.00000000000000E+00
      0.00000000000000E+00   0.00000000000000E+00  -1.03626290890568E-18  -6.99731386150140E-17  -7.10094015239197E-17
     -1.54607237716959E-15  -1.01771747599451E+01  -1.01771747599451E+01   0.00000000000000E+00   0.00000000000000E+00
     -2.29566609070916E-17  -1.27672234303837E-15  -1.29967900394546E-15  -2.04607350304143E-15
      2.13543495198903E-01
      8.00000000000000E-01   8.00000000000000E-01   0.00000000000000E+00   0.00000000000000E+00   1.37007547595541E-15
      2.81366677927898E-18   1.37288914273469E-15   3.57561632334853E-15   0.00000000000000E+00   0.00000000000000E+00
      0.00000000000000E+00   0.00000000000000E+00  -1.03625844332172E-18  -5.70277126288846E-17  -5.80639710722063E-17
     -1.52132305030521E-15  -1.06771747599451E+01  -1.06771747599451E+01   0.00000000000000E+00   0.00000000000000E+00
     -2.29569403719745E-17  -1.29186823129050E-15  -1.31482517166248E-15  -2.05429327304333E-15
      2.23543495198903E-01
      8.00000000000000E-01   8.00000000000000E-01   0.00000000000000E+00   0.00000000000000E+00   1.37143749003065E-15
     -5.61213976872256E-18   1.36582535026193E-15   3.55924594213097E-15   0.00000000000000E+00   0.00000000000000E+00
      0.00000000000000E+00   0.00000000000000E+00  -1.03625397444753E-18  -1.33445547699326E-17  -1.43808087443801E-17
     -1.49649802182751E-15  -1.11771747599451E+01  -1.11771747599451E+01   0.00000000000000E+00   0.00000000000000E+00
     -2.29572282708140E-17  -1.32848731324674E-15  -1.35144454151755E-15  -2.06274792030346E-15
      2.33543495198903E-01
      8.00000000000000E-01   8.00000000000000E-01   0.00000000000000E+00   0.00000000000000E+00   1.37238060884628E-15
      1.61241540070782E-17   1.38850476285336E-15   3.54306683549319E-15   0.00000000000000E+00   0.00000000000000E+00
      0.00000000000000E+00   0.00000000000000E+00  -1.03624953777611E-18   1.37753179870931E-16   1.36716930333155E-16
     -1.47162981462732E-15  -1.16771747599451E+01  -1.16771747599451E+01   0.00000000000000E+00   0.00000000000000E+00
     -2.29575246212596E-17  -1.50226416856526E-15  -1.52522169318652E-15  -2.07143702086586E-15
      2.43543495198903E-01
      8.00000000000000E-01   8.00000000000000E-01   0.00000000000000E+00   0.00000000000000E+00   1.37294022510057E-15
      1.13177875404538E-18   1.37407200385462E-15   3.52709220902731E-15   0.00000000000000E+00   0.00000000000000E+00
      0.00000000000000E+00   0.00000000000000E+00  -1.03624510486488E-18   6.52313184027446E-16   6.51276938922581E-16
     -1.44673247886832E-15  -1.21771747599451E+01  -1.21771747599451E+01   0.00000000000000E+00   0.00000000000000E+00
     -2.29578294273925E-17  -2.00239111334981E-15  -2.02534894277720E-15  -2.08035973015899E-15
      2.53543495198903E-01
      8.00000000000000E-01   8.00000000000000E-01   0.00000000000000E+00   0.00000000000000E+00   1.37319191987418E-15
     -1.34841368402822E-17   1.35970778303389E-15   3.51132821202274E-15   0.00000000000000E+00   0.00000000000000E+00
      0.00000000000000E+00   0.00000000000000E+00  -1.03624067089341E-18   2.35518627561319E-15   2.35415003494230E-15
     -1.42181317653666E-15  -1.26771747599451E+01  -1.26771747599451E+01   0.00000000000000E+00   0.00000000000000E+00
     -2.29581426882500E-17  -3.69089967528795E-15  -3.71385781797620E-15  -2.08951503548608E-15
      2.63543495198903E-01
      8.00000000000000E-01   8.00000000000000E-01   0.00000000000000E+00   0.00000000000000E+00   1.37321627812567E-15
     -5.22878371504191E-19   1.37269339975417E-15   3.49577857296849E-15   0.00000000000000E+00   0.00000000000000E+00
      0.00000000000000E+00   0.00000000000000E+00  -1.03623628089472E-18   7.80857278408623E-15   7.80753654780534E-15
     -1.39687672405412E-15  -1.31771747599451E+01  -1.31771747599451E+01   0.00000000000000E+00   0.00000000000000E+00
     -2.29584644009629E-17  -9.15727148315853E-15  -9.18022994755950E-15  -2.09890184891437E-15
      2.73543495198903E-01
      8.00000000000000E-01   8.00000000000000E-01   0.00000000000000E+00   0.00000000000000E+00   1.37306601097534E-15
     -8.22040184028024E-18   1.36484560913506E-15   3.48044658654878E-15   0.00000000000000E+00   0.00000000000000E+00
      0.00000000000000E+00   0.00000000000000E+00  -1.03623185298134E-18   2.46808411682543E-14   2.46798049364013E-14
     -1.37192754314155E-15  -1.36771747599451E+01  -1.36771747599451E+01   0.00000000000000E+00   0.00000000000000E+00
     -2.29587945619681E-17  -2.60216917509745E-14  -2.60446505455364E-14  -2.10851904340722E-15
      2.83543495198903E-01
      8.00000000000000E-01   8.00000000000000E-01   0.00000000000000E+00   0.00000000000000E+00   1.37275050304355E-15
     -1.10357876534359E-17   1.36171471539011E-15   3.46533618395111E-15   0.00000000000000E+00  -9.18447372075268E-17
      0.00000000000000E+00   0.00000000000000E+00  -1.03622748420210E-18   7.50696895617620E-14   7.50686533342778E-14
     -1.34697071166782E-15  -1.41771747599451E+01  -1.41771747599451E+01   0.00000000000000E+00   0.00000000000000E+00
     -2.29591331676624E-17  -7.64074089165004E-14  -7.64303680496681E-14  -2.11836547228329E-15
      2.93543495198903E-01
      8.00000000000000E-01   8.00000000000000E-01   0.00000000000000E+00   0.00000000000000E+00   1.37221933429386E-15
     -4.07859144619515E-17   1.33143341983191E-15   3.45045275932413E-15   0.00000000000000E+00  -1.83689474415054E-16
      0.00000000000000E+00   0.00000000000000E+00  -1.03622309527041E-18   2.20236234782210E-13   2.20235198559114E-13
     -1.32201276818335E-15  -1.46771747599451E+01  -1.46771747599451E+01   0.00000000000000E+00   0.00000000000000E+00
     -2.29594802151482E-17  -2.21543672498731E-13  -2.21566631978946E-13  -2.12843999114078E-15
      3.03543495198903E-01
      8.00000000000000E-01   8.00000000000000E-01   0.00000000000000E+00   0.00000000000000E+00   1.37132049991762E-15
      1.49517536046290E-17   1.38627225352225E-15   3.43580406554198E-15   0.00000000000000E+00  -6.42913160452687E-16
      0.00000000000000E+00   0.00000000000000E+00  -1.03621769459233E-18   6.23408713105781E-13   6.23407676888087E-13
     -1.29706256548685E-15  -1.51771747599451E+01  -1.51771747599451E+01   0.00000000000000E+00   0.00000000000000E+00
     -2.29598357036993E-17  -6.24770989305905E-13  -6.24793949141609E-13  -2.13874150005513E-15
      3.13543495198903E-01
      8.00000000000000E-01   8.00000000000000E-01   0.00000000000000E+00   0.00000000000000E+00   1.36970012900982E-15
     -8.01193148715639E-18   1.36168819752267E-15   3.42140140621393E-15   0.00000000000000E+00  -1.74505000694301E-15
      0.00000000000000E+00   0.00000000000000E+00  -1.03621319902471E-18   1.70208573217712E-12   1.70208469596392E-12
     -1.27213236958715E-15  -1.56771747599451E+01  -1.56771747599451E+01   0.00000000000000E+00   0.00000000000000E+00
     -2.29601996379967E-17  -1.70342342396180E-12  -1.70344638416144E-12  -2.14926903662679E-15
      3.23543495198903E-01
      8.00000000000000E-01   8.00000000000000E-01   0.00000000000000E+00   0.00000000000000E+00   1.36658154076931E-15
     -1.70812014776212E-17   1.34950033929169E-15   3.40726139796676E-15   0.00000000000000E+00  -4.50039212316881E-15
      0.00000000000000E+00   0.00000000000000E+00  -1.03620728842865E-18   4.47978588931022E-12   4.47978485310294E-12
     -1.24723941647612E-15  -1.61771747599451E+01  -1.61771747599451E+01   0.00000000000000E+00   0.00000000000000E+00
     -2.29605720353588E-17  -4.48111139287019E-12  -4.48113435344223E-12  -2.16002198149064E-15
      3.33543495198903E-01
      8.00000000000000E-01   8.00000000000000E-01   0.00000000000000E+00   0.00000000000000E+00   1.36032519001898E-15
     -7.90761741028943E-18   1.35241757260869E-15   3.39340872130810E-15   0.00000000000000E+00  -1.13887474137333E-14
      0.00000000000000E+00   0.00000000000000E+00  -1.03619681244196E-18   1.13565583570365E-11   1.13565573208397E-11
     -1.22240822411509E-15  -1.66771747599451E+01  -1.66771747599451E+01   0.00000000000000E+00   0.00000000000000E+00
     -2.29609529411863E-17  -1.13578867774593E-11  -1.13579097384122E-11  -2.17100049719301E-15
      3.43543495198903E-01
      8.00000000000000E-01   8.00000000000000E-01   0.00000000000000E+00   0.00000000000000E+00   1.34767697437180E-15
      7.62555258409074E-18   1.35530252695589E-15   3.37988050152118E-15   0.00000000000000E+00  -2.77371106366731E-14
      0.00000000000000E+00   0.00000000000000E+00  -1.03617533749837E-18   2.76997860241755E-11   2.76997849880002E-11
     -1.19767408183147E-15  -1.71771747599451E+01  -1.71771747599451E+01   0.00000000000000E+00   0.00000000000000E+00
     -2.29613424604777E-17  -2.77011173291846E-11  -2.77011402905270E-11  -2.18220641968971E-15
      3.53543495198903E-01
      8.00000000000000E-01   8.00000000000000E-01   0.00000000000000E+00   0.00000000000000E+00   1.32284271815286E-15
      5.11314817699289E-20   1.32289384963463E-15   3.36673318345134E-15   0.00000000000000E+00  -6.49342292057214E-14
      0.00000000000000E+00   0.00000000000000E+00  -1.03612832598261E-18   6.49084125342059E-11   6.49084114980776E-11
     -1.17308822756866E-15  -1.76771747599451E+01  -1.76771747599451E+01   0.00000000000000E+00   0.00000000000000E+00
     -2.29617408180144E-17  -6.49097114301866E-11  -6.49097343919274E-11  -2.19364495588268E-15
      3.63543495198903E-01
      8.00000000000000E-01   8.00000000000000E-01   0.00000000000000E+00   0.00000000000000E+00   1.27736263724838E-15
      2.48667804534485E-17   1.30222941770182E-15   3.35405271860063E-15   0.00000000000000E+00  -1.45849442685552E-13
      0.00000000000000E+00   0.00000000000000E+00  -1.03602979957919E-18   1.45824781043265E-10   1.45824780007236E-10
     -1.14872506445939E-15  -1.81771747599451E+01  -1.81771747599450E+01   0.00000000000000E+00   0.00000000000000E+00
     -2.29621484640706E-17  -1.45826059274505E-10  -1.45826082236653E-10  -2.20532765414125E-15
      3.73543495198903E-01
      8.00000000000000E-01   8.00000000000000E-01   0.00000000000000E+00   0.00000000000000E+00   1.20302361056230E-15
     -1.64797812695441E-17   1.18654382929275E-15   3.34196795561340E-15   0.00000000000000E+00  -3.13190553877666E-13
      0.00000000000000E+00   0.00000000000000E+00  -1.03584596154230E-18   3.13229160260159E-10   3.13229159224313E-10
     -1.12469092842380E-15  -1.86771747599451E+01  -1.86771747599448E+01   0.00000000000000E+00   0.00000000000000E+00
     -2.29625662396710E-17  -3.13230322805576E-10  -3.13230345768142E-10  -2.21727702718960E-15
      3.83543495198903E-01
      8.00000000000000E-01   8.00000000000000E-01   0.00000000000000E+00   0.00000000000000E+00   1.09868444111457E-15
     -1.47977690957027E-17   1.08388667201887E-15   3.33066439752406E-15   0.00000000000000E+00  -6.40984420971329E-13
      0.00000000000000E+00   0.00000000000000E+00  -1.03555415981928E-18   6.40984630105617E-10   6.40984629070063E-10
     -1.10113184141071E-15  -1.91771747599451E+01  -1.91771747599445E+01   0.00000000000000E+00   0.00000000000000E+00
     -2.29629955927509E-17  -6.40985689993737E-10  -6.40985712956732E-10  -2.22953255611336E-15
      3.93543495198903E-01
      8.00000000000000E-01   8.00000000000000E-01   0.00000000000000E+00   0.00000000000000E+00   9.74901642575835E-16
      1.28832700799450E-17   9.87784912655780E-16   3.32039069047936E-15   0.00000000000000E+00  -1.24449618916199E-12
      0.00000000000000E+00   0.00000000000000E+00  -1.03516400611155E-18   1.24452810865931E-09   1.24452810762414E-09
     -1.07823445942009E-15  -1.96771747599451E+01  -1.96771747599439E+01   0.00000000000000E+00   0.00000000000000E+00
     -2.29634387807498E-17  -1.24452907244561E-09  -1.24452909540905E-09  -2.24215623105926E-15
      4.03543495198903E-01
      8.00000000000000E-01   8.00000000000000E-01   0.00000000000000E+00   0.00000000000000E+00   8.48596551847135E-16
     -4.02601654846848E-18   8.44570535298667E-16   3.31144618147159E-15   0.00000000000000E+00  -2.28362754592795E-12
      0.00000000000000E+00   0.00000000000000E+00  -1.03470998976369E-18   2.28359891882041E-09   2.28359891778570E-09
     -1.05621243651233E-15  -2.01771747599451E+01  -2.01771747599429E+01   0.00000000000000E+00   0.00000000000000E+00
     -2.29638989219882E-17  -2.28359973939234E-09  -2.28359976235623E-09  -2.25523374495925E-15
      4.13543495198903E-01
      8.00000000000000E-01   8.00000000000000E-01   0.00000000000000E+00   0.00000000000000E+00   7.32954589049480E-16
      5.68910073840491E-18   7.38643689787885E-16   3.30414184830345E-15   0.00000000000000E+00  -3.94941554466086E-12
      0.00000000000000E+00   0.00000000000000E+00  -1.03422146563234E-18   3.94939809638511E-09   3.94939809535089E-09
     -1.03527466983932E-15  -2.06771747599451E+01  -2.06771747599412E+01   0.00000000000000E+00   0.00000000000000E+00
     -2.29643797459873E-17  -3.94939881103022E-09  -3.94939883399460E-09  -2.26886717846413E-15
      4.23543495198903E-01
      8.00000000000000E-01   8.00000000000000E-01   0.00000000000000E+00   0.00000000000000E+00   6.33192904530896E-16
      5.57345915438696E-18   6.38766363685283E-16   3.29874320992316E-15   0.00000000000000E+00  -6.43565258086861E-12
      0.00000000000000E+00   0.00000000000000E+00  -1.03370601581386E-18   6.43562637433853E-09   6.43562637330482E-09
     -1.01558414505608E-15  -2.11771747599451E+01  -2.11771747599387E+01   0.00000000000000E+00   0.00000000000000E+00
     -2.29648850344335E-17  -6.43562698910629E-09  -6.43562701207117E-09  -2.28315906486707E-15
      4.33543495198903E-01
      8.00000000000000E-01   8.00000000000000E-01   0.00000000000000E+00   0.00000000000000E+00   5.49090886949715E-16
     -3.15113575646454E-17   5.17579529385070E-16   3.29542096833954E-15   0.00000000000000E+00  -9.90490383940852E-12
      0.00000000000000E+00   0.00000000000000E+00  -1.03315472594860E-18   9.90492255114250E-09   9.90492255010934E-09
     -9.97226714276371E-16  -2.16771747599451E+01  -2.16771747599352E+01   0.00000000000000E+00   0.00000000000000E+00
     -2.29654179768171E-17  -9.90492304472332E-09  -9.90492306768873E-09  -2.29819425406317E-15
      4.43543495198903E-01
      8.00000000000000E-01   8.00000000000000E-01   0.00000000000000E+00   0.00000000000000E+00   4.78743046480104E-16
     -6.09649742031243E-18   4.72646549059792E-16   3.29423281585995E-15   0.00000000000000E+00  -1.44666482470320E-11
      0.00000000000000E+00   0.00000000000000E+00  -1.03255358729332E-18   1.44666551537932E-08   1.44666551527607E-08
     -9.80204613670435E-16  -2.21771747599451E+01  -2.21771747599307E+01   0.00000000000000E+00   0.00000000000000E+00
     -2.29659807471506E-17  -1.44666556024410E-08  -1.44666556254070E-08  -2.31402820218952E-15
      4.53543495198903E-01
      8.00000000000000E-01   8.00000000000000E-01   0.00000000000000E+00   0.00000000000000E+00   4.20220611366079E-16
      2.15043690160743E-17   4.41724980382153E-16   3.29513837970068E-15   0.00000000000000E+00  -2.01732373039472E-11
      0.00000000000000E+00   0.00000000000000E+00  -1.03188989340853E-18   2.01732707166328E-08   2.01732707156009E-08
     -9.64452984214164E-16  -2.26771747599451E+01  -2.26771747599250E+01   0.00000000000000E+00   0.00000000000000E+00
     -2.29665744372962E-17  -2.01732711343590E-08  -2.01732711573256E-08  -2.33068539548652E-15
      4.63543495198903E-01
      8.00000000000000E-01   8.00000000000000E-01   0.00000000000000E+00   0.00000000000000E+00   3.71734586593055E-16
     -8.13756778692596E-18   3.63597018806129E-16   3.29803139738952E-15   0.00000000000000E+00  -2.70305490733356E-11