DF-ISE text

Info {
  version   = 1.0
  type      = xyplot
  datasets  = [
    "time"
    "Ntop OuterVoltage" "Ntop InnerVoltage" "Ntop QuasiFermiPotential" "Ntop DisplacementCurrent" "Ntop eCurrent"
    "Ntop hCurrent" "Ntop TotalCurrent" "Ntop Charge" "Ptop OuterVoltage" "Ptop InnerVoltage"
    "Ptop QuasiFermiPotential" "Ptop DisplacementCurrent" "Ptop eCurrent" "Ptop hCurrent" "Ptop TotalCurrent"
    "Ptop Charge" "Pbot OuterVoltage" "Pbot InnerVoltage" "Pbot QuasiFermiPotential" "Pbot DisplacementCurrent"
    "Pbot eCurrent" "Pbot hCurrent" "Pbot TotalCurrent" "Pbot Charge" ]
  functions = [
    Time
    OuterVoltage InnerVoltage QuasiFermiPotential DisplacementCurrent eCurrent
    hCurrent TotalCurrent Charge OuterVoltage InnerVoltage
    QuasiFermiPotential DisplacementCurrent eCurrent hCurrent TotalCurrent
    Charge OuterVoltage InnerVoltage QuasiFermiPotential DisplacementCurrent
    eCurrent hCurrent TotalCurrent Charge ]
}

Data {
      1.00000000000000E-03
      8.00000000000000E-01   8.00000000000000E-01   0.00000000000000E+00   0.00000000000000E+00   5.53821620229688E-16
      2.19288703289384E-19   5.54040908932977E-16   3.49238182985375E-15   0.00000000000000E+00   0.00000000000000E+00
      0.00000000000000E+00   0.00000000000000E+00  -1.03632615909762E-18  -6.01964511772299E-17  -6.12327773363276E-17
     -1.56679755696252E-15  -5.00000000000000E-02  -5.00000000000000E-02   0.00000000000000E+00   0.00000000000000E+00
     -2.29526236935793E-17  -4.69855507903071E-16  -4.92808131596650E-16  -1.92558427289123E-15
      2.91111111111111E-03
      8.00000000000000E-01   8.00000000000000E-01   0.00000000000000E+00   0.00000000000000E+00   5.85436544147396E-16
      9.73571511546640E-20   5.85533901298550E-16   3.49326400310039E-15   0.00000000000000E+00   0.00000000000000E+00
      0.00000000000000E+00   0.00000000000000E+00  -1.03632615864870E-18  -6.00730736461446E-17  -6.11093998047933E-17
     -1.56679633133888E-15  -1.45555555555556E-01  -1.45555555555555E-01   0.00000000000000E+00   0.00000000000000E+00
     -2.29526526265966E-17  -5.01471848867161E-16  -5.24424501493758E-16  -1.92646767176151E-15
      6.56345679012346E-03
      8.00000000000000E-01   8.00000000000000E-01   0.00000000000000E+00   0.00000000000000E+00   6.41903047438612E-16
      1.37781654024927E-18   6.43280863978862E-16   3.49494647952383E-15   0.00000000000000E+00   0.00000000000000E+00
      0.00000000000000E+00   0.00000000000000E+00  -1.03632615725724E-18  -5.98478004712003E-17  -6.08841266284575E-17
     -1.56679253254205E-15  -3.28172839506173E-01  -3.28172839506173E-01   0.00000000000000E+00   0.00000000000000E+00
     -2.29527079332288E-17  -5.59444029417175E-16  -5.82396737350404E-16  -1.92815394698179E-15
      1.35434951989026E-02
      8.00000000000000E-01   8.00000000000000E-01   0.00000000000000E+00   0.00000000000000E+00   7.39029376559321E-16
      1.58770637520741E-18   7.40617082934528E-16   3.49814481293294E-15   0.00000000000000E+00   0.00000000000000E+00
      0.00000000000000E+00   0.00000000000000E+00  -1.03632615087719E-18  -5.95272840807242E-17  -6.05636102316014E-17
     -1.56677511487139E-15  -6.77174759945130E-01  -6.77174759945130E-01   0.00000000000000E+00   0.00000000000000E+00
     -2.29528136410677E-17  -6.57100659061859E-16  -6.80053472702927E-16  -1.93136969806155E-15
      2.35434951989026E-02
      8.00000000000000E-01   8.00000000000000E-01   0.00000000000000E+00   0.00000000000000E+00   8.60668836925855E-16
     -3.86855408006699E-19   8.60281981517849E-16   3.50265330270628E-15   0.00000000000000E+00   0.00000000000000E+00
      0.00000000000000E+00   0.00000000000000E+00  -1.03632611916976E-18  -5.92028774634971E-17  -6.02392035826669E-17
     -1.56668856434341E-15  -1.17717475994513E+00  -1.17717475994513E+00   0.00000000000000E+00   0.00000000000000E+00
     -2.29529651166450E-17  -7.77089812818537E-16  -8.00042777935182E-16  -1.93596473836288E-15
      3.35434951989026E-02
      8.00000000000000E-01   8.00000000000000E-01   0.00000000000000E+00   0.00000000000000E+00   9.64903755610770E-16
      8.20656252382868E-19   9.65724411863153E-16   3.50696273809694E-15   0.00000000000000E+00   0.00000000000000E+00
      0.00000000000000E+00   0.00000000000000E+00  -1.03632601176862E-18  -5.90386704013747E-17  -6.00749964131433E-17
     -1.56639539441913E-15  -1.67717475994513E+00  -1.67717475994513E+00   0.00000000000000E+00   0.00000000000000E+00
     -2.29531172413350E-17  -8.82696298208675E-16  -9.05649415450010E-16  -1.94056734367781E-15
      4.35434951989026E-02
      8.00000000000000E-01   8.00000000000000E-01   0.00000000000000E+00   0.00000000000000E+00   1.04904028373464E-15
      6.90743212766952E-19   1.04973102694741E-15   3.51083173209452E-15   0.00000000000000E+00   0.00000000000000E+00
      0.00000000000000E+00   0.00000000000000E+00  -1.03632571946094E-18  -5.90290471153314E-17  -6.00653728347923E-17
     -1.56559659821093E-15  -2.17717475994513E+00  -2.17717475994513E+00   0.00000000000000E+00   0.00000000000000E+00
     -2.29532718570180E-17  -9.66712382255599E-16  -9.89665654112617E-16  -1.94523513388359E-15
      5.35434951989026E-02
      8.00000000000000E-01   8.00000000000000E-01   0.00000000000000E+00   0.00000000000000E+00   1.11597555959496E-15
     -1.52963061977359E-18   1.11444592897518E-15   3.51385173494061E-15   0.00000000000000E+00   0.00000000000000E+00
      0.00000000000000E+00   0.00000000000000E+00  -1.03632507285627E-18  -5.93064286539269E-17  -6.03427537267832E-17
     -1.56382324074864E-15  -2.67717475994513E+00  -2.67717475994513E+00   0.00000000000000E+00   0.00000000000000E+00
     -2.29534309363137E-17  -1.03114974431209E-15  -1.05410317524840E-15  -1.95002849419197E-15
      6.35434951989026E-02
      8.00000000000000E-01   8.00000000000000E-01   0.00000000000000E+00   0.00000000000000E+00   1.16858988350123E-15
      1.68966918093984E-18   1.17027955268217E-15   3.51555979954928E-15   0.00000000000000E+00   0.00000000000000E+00
      0.00000000000000E+00   0.00000000000000E+00  -1.03632389665329E-18  -5.99536447424782E-17  -6.09899686391315E-17
     -1.56056600922704E-15  -3.17717475994513E+00  -3.17717475994513E+00   0.00000000000000E+00   0.00000000000000E+00
     -2.29535960107545E-17  -1.08633598803228E-15  -1.10928958404304E-15  -1.95499379032223E-15
      7.35434951989026E-02
      8.00000000000000E-01   8.00000000000000E-01   0.00000000000000E+00   0.00000000000000E+00   1.20973190918644E-15
      8.47528417759664E-18   1.21820719336403E-15   3.51568494767210E-15   0.00000000000000E+00   0.00000000000000E+00
      0.00000000000000E+00   0.00000000000000E+00  -1.03632210878739E-18  -6.11078356838757E-17  -6.21441577926631E-17
     -1.55552296604838E-15  -3.67717475994513E+00  -3.67717475994513E+00   0.00000000000000E+00   0.00000000000000E+00
     -2.29537681143127E-17  -1.13310926745706E-15  -1.15606303557137E-15  -1.96016198162372E-15
      8.35434951989026E-02
      8.00000000000000E-01   8.00000000000000E-01   0.00000000000000E+00   0.00000000000000E+00   1.24183576610829E-15
      9.73678515976238E-18   1.25157255126806E-15   3.51432458039979E-15   0.00000000000000E+00   0.00000000000000E+00
      0.00000000000000E+00   0.00000000000000E+00  -1.03631977750108E-18  -6.29641367026316E-17  -6.40004564801327E-17
     -1.54877165564714E-15  -4.17717475994513E+00  -4.17717475994513E+00   0.00000000000000E+00   0.00000000000000E+00
     -2.29539479201630E-17  -1.16461814686776E-15  -1.18757209478792E-15  -1.96555292475265E-15
      9.35434951989026E-02
      8.00000000000000E-01   8.00000000000000E-01   0.00000000000000E+00   0.00000000000000E+00   1.26731711501840E-15
      6.21804696247099E-18   1.27353516198087E-15   3.51181359021725E-15   0.00000000000000E+00   0.00000000000000E+00
      0.00000000000000E+00   0.00000000000000E+00  -1.03631705087102E-18  -6.54553503731093E-17  -6.64916674239803E-17
     -1.54063376202238E-15  -4.67717475994513E+00  -4.67717475994513E+00   0.00000000000000E+00   0.00000000000000E+00
     -2.29541358854912E-17  -1.18408935867139E-15  -1.20704349455688E-15  -1.97117982819488E-15
      1.03543495198903E-01
      8.00000000000000E-01   8.00000000000000E-01   0.00000000000000E+00   0.00000000000000E+00   1.28739710538102E-15
     -1.96343825218091E-18   1.28543366712884E-15   3.50847200024324E-15   0.00000000000000E+00   0.00000000000000E+00
      0.00000000000000E+00   0.00000000000000E+00  -1.03631405571913E-18  -6.81777031053508E-17  -6.92140171610700E-17
     -1.53142186468265E-15  -5.17717475994513E+00  -5.17717475994513E+00   0.00000000000000E+00   0.00000000000000E+00
     -2.29543322788034E-17  -1.19326531768896E-15  -1.21621964996777E-15  -1.97705013556059E-15
      1.13543495198903E-01
      8.00000000000000E-01   8.00000000000000E-01   0.00000000000000E+00   0.00000000000000E+00   1.30258994322076E-15
     -7.44557530297920E-18   1.29514436791778E-15   3.50451463358850E-15   0.00000000000000E+00   0.00000000000000E+00
      0.00000000000000E+00   0.00000000000000E+00  -1.03631087089455E-18  -7.03042348153807E-17  -7.13405456862752E-17
     -1.52134784016080E-15  -5.67717475994513E+00  -5.67717475994513E+00   0.00000000000000E+00   0.00000000000000E+00
     -2.29545372207146E-17  -1.20084928501079E-15  -1.22380382223150E-15  -1.98316679342770E-15
      1.23543495198903E-01
      8.00000000000000E-01   8.00000000000000E-01   0.00000000000000E+00   0.00000000000000E+00   1.31380376505407E-15
      3.85084042032083E-18   1.31765460547439E-15   3.50007241296772E-15   0.00000000000000E+00   0.00000000000000E+00
      0.00000000000000E+00   0.00000000000000E+00  -1.03630754159603E-18  -7.15359878572836E-17  -7.25722953988796E-17
     -1.51054238481480E-15  -6.17717475994513E+00  -6.17717475994513E+00   0.00000000000000E+00   0.00000000000000E+00
     -2.29547507423471E-17  -1.22212755933316E-15  -1.24508231007551E-15  -1.98953002815292E-15
      1.33543495198903E-01
      8.00000000000000E-01   8.00000000000000E-01   0.00000000000000E+00   0.00000000000000E+00   1.32232450604206E-15
      1.51054000961352E-17   1.33742990613820E-15   3.49522650164767E-15   0.00000000000000E+00   0.00000000000000E+00
      0.00000000000000E+00   0.00000000000000E+00  -1.03630409469070E-18  -7.20981516533531E-17  -7.31344557480438E-17
     -1.49908787849917E-15  -6.67717475994513E+00  -6.67717475994513E+00   0.00000000000000E+00   0.00000000000000E+00
     -2.29549728275294E-17  -1.24134047756262E-15  -1.26429545039015E-15  -1.99613862314852E-15
      1.43543495198903E-01
      8.00000000000000E-01   8.00000000000000E-01   0.00000000000000E+00   0.00000000000000E+00   1.32911899040695E-15
      5.15817072980279E-18   1.33427716113676E-15   3.49003013105701E-15   0.00000000000000E+00   0.00000000000000E+00
      0.00000000000000E+00   0.00000000000000E+00  -1.03630054745644E-18  -7.22154013335521E-17  -7.32517018810085E-17
     -1.48703949282871E-15  -7.17717475994513E+00  -7.17717475994513E+00   0.00000000000000E+00   0.00000000000000E+00
     -2.29552034366045E-17  -1.23807025581914E-15  -1.26102545925575E-15  -2.00299063822830E-15
      1.53543495198903E-01
      8.00000000000000E-01   8.00000000000000E-01   0.00000000000000E+00   0.00000000000000E+00   1.33473490398737E-15
      1.61773064809207E-17   1.35091221046829E-15   3.48452043287489E-15   0.00000000000000E+00   0.00000000000000E+00
      0.00000000000000E+00   0.00000000000000E+00  -1.03629691194578E-18  -7.20897539016428E-17  -7.31260508135886E-17
     -1.47443664210328E-15  -7.67717475994513E+00  -7.67717475994513E+00   0.00000000000000E+00   0.00000000000000E+00
     -2.29554425190658E-17  -1.25483071713563E-15  -1.27778615965470E-15  -2.01008379077161E-15
      1.63543495198903E-01
      8.00000000000000E-01   8.00000000000000E-01   0.00000000000000E+00   0.00000000000000E+00   1.33946983095802E-15
      3.55834183445902E-18   1.34302817279248E-15   3.47872478920121E-15   0.00000000000000E+00   0.00000000000000E+00
      0.00000000000000E+00   0.00000000000000E+00  -1.03629319716608E-18  -7.18111168704033E-17  -7.28474100675694E-17
     -1.46130912994535E-15  -8.17717475994513E+00  -8.17717475994513E+00   0.00000000000000E+00   0.00000000000000E+00
     -2.29556900202996E-17  -1.24722507270461E-15  -1.27018076272491E-15  -2.01741565925587E-15
      1.73543495198903E-01
      8.00000000000000E-01   8.00000000000000E-01   0.00000000000000E+00   0.00000000000000E+00   1.34350841956564E-15
      1.67270156318870E-17   1.36023543519753E-15   3.47266439240188E-15   0.00000000000000E+00   0.00000000000000E+00
      0.00000000000000E+00   0.00000000000000E+00  -1.03628941022806E-18  -7.13432789473222E-17  -7.23795683575503E-17
     -1.44768059745518E-15  -8.67717475994513E+00  -8.67717475994513E+00   0.00000000000000E+00   0.00000000000000E+00
     -2.29559458852929E-17  -1.26489992095468E-15  -1.28785586683997E-15  -2.02498379494669E-15
      1.83543495198903E-01
      8.00000000000000E-01   8.00000000000000E-01   0.00000000000000E+00   0.00000000000000E+00   1.34699218938503E-15
      2.52767088015005E-18   1.34951986026518E-15   3.46635635905538E-15   0.00000000000000E+00   0.00000000000000E+00
      0.00000000000000E+00   0.00000000000000E+00  -1.03628555699406E-18  -7.07828336086456E-17  -7.18191191656396E-17
     -1.43357057479805E-15  -9.17717475994513E+00  -9.17717475994513E+00   0.00000000000000E+00   0.00000000000000E+00
     -2.29562100607137E-17  -1.25474453103882E-15  -1.27770074109954E-15  -2.03278578425734E-15
      1.93543495198903E-01
      8.00000000000000E-01   8.00000000000000E-01   0.00000000000000E+00   0.00000000000000E+00   1.35004429622740E-15
     -5.03117212396475E-18   1.34501312410343E-15   3.45981504817271E-15   0.00000000000000E+00   0.00000000000000E+00
      0.00000000000000E+00   0.00000000000000E+00  -1.03628164246774E-18  -7.00623712282892E-17  -7.10986528707569E-17
     -1.41899576558513E-15  -9.67717475994513E+00  -9.67717475994513E+00   0.00000000000000E+00   0.00000000000000E+00
     -2.29564824960258E-17  -1.25095798873665E-15  -1.27391447123268E-15  -2.04081928258758E-15
      2.03543495198903E-01
      8.00000000000000E-01   8.00000000000000E-01   0.00000000000000E+00   0.00000000000000E+00   1.35276411942558E-15
      3.01546534523866E-18   1.35577958477082E-15   3.45305290818215E-15   0.00000000000000E+00   0.00000000000000E+00
      0.00000000000000E+00   0.00000000000000E+00  -1.03627767103940E-18  -6.92103212779195E-17  -7.02465989489589E-17
     -1.40397087780878E-15  -1.01771747599451E+01  -1.01771747599451E+01   0.00000000000000E+00   0.00000000000000E+00
     -2.29567631440360E-17  -1.26257622267783E-15  -1.28553298582187E-15  -2.04908203037337E-15
      2.13543495198903E-01
      8.00000000000000E-01   8.00000000000000E-01   0.00000000000000E+00   0.00000000000000E+00   1.35521797010219E-15
      9.19764414379912E-18   1.36441561424599E-15   3.44608102997164E-15   0.00000000000000E+00   0.00000000000000E+00
      0.00000000000000E+00   0.00000000000000E+00  -1.03627364664580E-18  -6.80890252017076E-17  -6.91252988483534E-17
     -1.38850917217922E-15  -1.06771747599451E+01  -1.06771747599451E+01   0.00000000000000E+00   0.00000000000000E+00
     -2.29570519610411E-17  -1.27233326343660E-15  -1.29529031539764E-15  -2.05757185779242E-15
      2.23543495198903E-01
      8.00000000000000E-01   8.00000000000000E-01   0.00000000000000E+00   0.00000000000000E+00   1.35746524512434E-15
     -7.77679384548852E-20   1.35738747718588E-15   3.43890951582609E-15   0.00000000000000E+00   0.00000000000000E+00
      0.00000000000000E+00   0.00000000000000E+00  -1.03626957287767E-18  -6.60521239148451E-17  -6.70883934877228E-17
     -1.37262283308820E-15  -1.11771747599451E+01  -1.11771747599451E+01   0.00000000000000E+00   0.00000000000000E+00
     -2.29573489067644E-17  -1.26734173479139E-15  -1.29029908369816E-15  -2.06628668273789E-15
      2.33543495198903E-01
      8.00000000000000E-01   8.00000000000000E-01   0.00000000000000E+00   0.00000000000000E+00   1.35956519211629E-15
     -5.63195126468848E-18   1.35393324085160E-15   3.43154773963371E-15   0.00000000000000E+00   0.00000000000000E+00
      0.00000000000000E+00   0.00000000000000E+00  -1.03626545305572E-18  -6.13175472599173E-17  -6.23538127129731E-17
     -1.35632323402004E-15  -1.16771747599451E+01  -1.16771747599451E+01   0.00000000000000E+00   0.00000000000000E+00
     -2.29576539441790E-17  -1.26862177419445E-15  -1.29157942813863E-15  -2.07522450561367E-15
      2.43543495198903E-01
      8.00000000000000E-01   8.00000000000000E-01   0.00000000000000E+00   0.00000000000000E+00   1.36155538234698E-15
      1.01006681759900E-17   1.37165605052297E-15   3.42400455311665E-15   0.00000000000000E+00   0.00000000000000E+00
      0.00000000000000E+00   0.00000000000000E+00  -1.03626129028793E-18  -4.76065944993463E-17  -4.86428557896343E-17
     -1.33962114949448E-15  -1.21771747599451E+01  -1.21771747599451E+01   0.00000000000000E+00   0.00000000000000E+00
     -2.29579670393151E-17  -1.30005522769402E-15  -1.32301319473334E-15  -2.08438340362217E-15
      2.53543495198903E-01
      8.00000000000000E-01   8.00000000000000E-01   0.00000000000000E+00   0.00000000000000E+00   1.36345735270670E-15
      1.85354971374460E-18   1.36531090242045E-15   3.41628847995863E-15   0.00000000000000E+00   0.00000000000000E+00
      0.00000000000000E+00   0.00000000000000E+00  -1.03625708751711E-18  -4.56740516458535E-18  -5.60366225210246E-18
     -1.32252695349947E-15  -1.26771747599451E+01  -1.26771747599451E+01   0.00000000000000E+00   0.00000000000000E+00
     -2.29582881611128E-17  -1.33674895200723E-15  -1.35970724016835E-15  -2.09376152645917E-15
      2.63543495198903E-01
      8.00000000000000E-01   8.00000000000000E-01   0.00000000000000E+00   0.00000000000000E+00   1.36528314256216E-15
     -9.24405689875468E-18   1.35603908566341E-15   3.40840793290688E-15   0.00000000000000E+00   0.00000000000000E+00
      0.00000000000000E+00   0.00000000000000E+00  -1.03625284756413E-18   1.33590096503483E-16   1.32553843655918E-16
     -1.30505083812710E-15  -1.31771747599451E+01  -1.31771747599451E+01   0.00000000000000E+00   0.00000000000000E+00
     -2.29586172813752E-17  -1.46563431203795E-15  -1.48859292931933E-15  -2.10335709477978E-15
      2.73543495198903E-01
      8.00000000000000E-01   8.00000000000000E-01   0.00000000000000E+00   0.00000000000000E+00   1.36703623356465E-15
     -7.07471654686669E-19   1.36632876190996E-15   3.40037148692504E-15   0.00000000000000E+00   0.00000000000000E+00
      0.00000000000000E+00   0.00000000000000E+00  -1.03624857317004E-18   5.74395454297858E-16   5.73359205724688E-16
     -1.28720308445378E-15  -1.36771747599451E+01  -1.36771747599451E+01   0.00000000000000E+00   0.00000000000000E+00
     -2.29589543748464E-17  -1.91672901325981E-15  -1.93968796763465E-15  -2.11316840247125E-15
      2.83543495198903E-01
      8.00000000000000E-01   8.00000000000000E-01   0.00000000000000E+00   0.00000000000000E+00   1.36871026614875E-15
     -1.70715803034524E-17   1.35163868584529E-15   3.39218824205327E-15   0.00000000000000E+00   0.00000000000000E+00
      0.00000000000000E+00   0.00000000000000E+00  -1.03624426703568E-18   1.95801119631712E-15   1.95697495205008E-15
     -1.26899441845711E-15  -1.41771747599451E+01  -1.41771747599451E+01   0.00000000000000E+00   0.00000000000000E+00
     -2.29592994194612E-17  -3.28565433847591E-15  -3.30861363789537E-15  -2.12319382359618E-15
      2.93543495198903E-01
      8.00000000000000E-01   8.00000000000000E-01   0.00000000000000E+00   0.00000000000000E+00   1.37028829524568E-15
      2.76853646667763E-17   1.39797365991246E-15   3.38386830944381E-15   0.00000000000000E+00   0.00000000000000E+00
      0.00000000000000E+00   0.00000000000000E+00  -1.03623993183816E-18   6.21168697676334E-15   6.21065073683150E-15
     -1.25043648470483E-15  -1.46771747599451E+01  -1.46771747599451E+01   0.00000000000000E+00   0.00000000000000E+00
     -2.29596523967752E-17  -7.58566474434718E-15  -7.60862439674395E-15  -2.13343182473897E-15
      3.03543495198903E-01
      8.00000000000000E-01   8.00000000000000E-01   0.00000000000000E+00   0.00000000000000E+00   1.37174319699050E-15
      1.73986792023893E-17   1.38914187619289E-15   3.37542344869269E-15   0.00000000000000E+00   0.00000000000000E+00
      0.00000000000000E+00   0.00000000000000E+00  -1.03623557012519E-18   1.89872770784190E-14   1.89862408428489E-14
     -1.23154246536077E-15  -1.51771747599451E+01  -1.51771747599451E+01   0.00000000000000E+00   0.00000000000000E+00
     -2.29600132926140E-17  -2.03524227057491E-14  -2.03753827190417E-14  -2.14388098333193E-15
      3.13543495198903E-01
      8.00000000000000E-01   8.00000000000000E-01   0.00000000000000E+00   0.00000000000000E+00   1.37303481940082E-15
     -1.79191416517608E-17   1.35511567774906E-15   3.36686786947417E-15   0.00000000000000E+00  -9.18447372075268E-17
      0.00000000000000E+00   0.00000000000000E+00  -1.03623118365607E-18   5.63987031695271E-14   5.63976669383434E-14
     -1.21232785697413E-15  -1.56771747599451E+01  -1.56771747599451E+01   0.00000000000000E+00   0.00000000000000E+00
     -2.29603820979600E-17  -5.77298222339946E-14  -5.77527826160926E-14  -2.15454001250004E-15
      3.23543495198903E-01
      8.00000000000000E-01   8.00000000000000E-01   0.00000000000000E+00   0.00000000000000E+00   1.37409815257877E-15
      1.10314563320226E-17   1.38512960891079E-15   3.35821918384816E-15   0.00000000000000E+00  -1.83689474415054E-16
      0.00000000000000E+00   0.00000000000000E+00  -1.03622677046729E-18   1.63015259230615E-13   1.63014223003845E-13
     -1.19281139010185E-15  -1.61771747599451E+01  -1.61771747599451E+01   0.00000000000000E+00   0.00000000000000E+00
     -2.29607588101140E-17  -1.64376391853945E-13  -1.64399352612755E-13  -2.16540779374630E-15
      3.33543495198903E-01
      8.00000000000000E-01   8.00000000000000E-01   0.00000000000000E+00   0.00000000000000E+00   1.37481191789798E-15
      2.95690713693306E-18   1.37776882503491E-15   3.34949946555037E-15   0.00000000000000E+00  -4.59223686037634E-16
      0.00000000000000E+00   0.00000000000000E+00  -1.03622231340719E-18   4.58153471541470E-13   4.58152435319156E-13
     -1.17301604309526E-15  -1.66771747599451E+01  -1.66771747599451E+01   0.00000000000000E+00   0.00000000000000E+00
     -2.29611434343278E-17  -4.59507243000758E-13  -4.59530204144192E-13  -2.17648342245511E-15
      3.43543495198903E-01
      8.00000000000000E-01   8.00000000000000E-01   0.00000000000000E+00   0.00000000000000E+00   1.37492461613508E-15
      8.41409528628045E-18   1.38333871142136E-15   3.34073636626863E-15   0.00000000000000E+00  -1.28582632090537E-15
      0.00000000000000E+00   0.00000000000000E+00  -1.03621774014679E-18   1.25020148855341E-12   1.25020045233567E-12
     -1.15297008403692E-15  -1.71771747599451E+01  -1.71771747599451E+01   0.00000000000000E+00   0.00000000000000E+00
     -2.29615359864782E-17  -1.25156082951110E-12  -1.25158379104709E-12  -2.18776628223171E-15
      3.53543495198903E-01
      8.00000000000000E-01   8.00000000000000E-01   0.00000000000000E+00   0.00000000000000E+00   1.37389135807586E-15
      1.34216558720784E-17   1.38731301394793E-15   3.33196430592895E-15   0.00000000000000E+00  -3.30641053947096E-15
      0.00000000000000E+00   0.00000000000000E+00  -1.03621280121683E-18   3.30652355595852E-12   3.30652251974572E-12
     -1.13270811523407E-15  -1.76771747599451E+01  -1.76771747599451E+01   0.00000000000000E+00   0.00000000000000E+00
     -2.29619364982737E-17  -3.30788687082316E-12  -3.30790983275966E-12  -2.19925619069488E-15
      3.63543495198903E-01
      8.00000000000000E-01   8.00000000000000E-01   0.00000000000000E+00   0.00000000000000E+00   1.37054325833631E-15
      1.61128796232722E-17   1.38665613795958E-15   3.32322594872768E-15   0.00000000000000E+00  -8.44971582309246E-15
      0.00000000000000E+00   0.00000000000000E+00  -1.03620674755381E-18   8.45939255708671E-12   8.45939152087996E-12
     -1.11227223530527E-15  -1.81771747599451E+01  -1.81771747599451E+01   0.00000000000000E+00   0.00000000000000E+00
     -2.29623450284770E-17  -8.46075521467279E-12  -8.46077817701782E-12  -2.21095371342240E-15
      3.73543495198903E-01
      8.00000000000000E-01   8.00000000000000E-01   0.00000000000000E+00   0.00000000000000E+00   1.36250697522559E-15
      8.14236755693710E-19   1.36332121198128E-15   3.31457451130283E-15   0.00000000000000E+00  -2.08487553461086E-14
      0.00000000000000E+00   0.00000000000000E+00  -1.03619759791401E-18   2.08902920987179E-11   2.08902910625203E-11
     -1.09171367467525E-15  -1.86771747599451E+01  -1.86771747599451E+01   0.00000000000000E+00   0.00000000000000E+00
     -2.29627616869133E-17  -2.08916314209704E-11  -2.08916543837321E-11  -2.22286083662758E-15
      3.83543495198903E-01
      8.00000000000000E-01   8.00000000000000E-01   0.00000000000000E+00   0.00000000000000E+00   1.34545992188615E-15
      1.20135679951222E-18   1.34666127868566E-15   3.30607782816519E-15   0.00000000000000E+00  -4.96880028292720E-14
      0.00000000000000E+00   0.00000000000000E+00  -1.03618081068717E-18   4.96726597465184E-11   4.96726587103376E-11
     -1.07109550511687E-15  -1.91771747599451E+01  -1.91771747599451E+01   0.00000000000000E+00   0.00000000000000E+00
     -2.29631866829695E-17  -4.96739824084294E-11  -4.96740053716160E-11  -2.23498232304833E-15
      3.93543495198903E-01
      8.00000000000000E-01   8.00000000000000E-01   0.00000000000000E+00   0.00000000000000E+00   1.31296924768472E-15
      2.14424067696380E-17   1.33441165445436E-15   3.29782524643903E-15   0.00000000000000E+00  -1.13428250451296E-13
      0.00000000000000E+00   0.00000000000000E+00  -1.03614781044105E-18   1.13394235642476E-10   1.13394234606328E-10
     -1.05049704143868E-15  -1.96771747599451E+01  -1.96771747599450E+01   0.00000000000000E+00   0.00000000000000E+00
     -2.29636204149736E-17  -1.13395546054363E-10  -1.13395569017984E-10  -2.24732820500035E-15
      4.03543495198903E-01
      8.00000000000000E-01   8.00000000000000E-01   0.00000000000000E+00   0.00000000000000E+00   1.25871154712686E-15
     -1.27089761822099E-17   1.24600257094465E-15   3.28993779814609E-15   0.00000000000000E+00  -2.47613411511492E-13
      0.00000000000000E+00   0.00000000000000E+00  -1.03608660806977E-18   2.47646132686953E-10   2.47646131650867E-10
     -1.03001996006856E-15  -2.01771747599451E+01  -2.01771747599449E+01   0.00000000000000E+00   0.00000000000000E+00
     -2.29640636161680E-17  -2.47647354689369E-10  -2.47647377653433E-10  -2.25991783807754E-15
      4.13543495198903E-01
      8.00000000000000E-01   8.00000000000000E-01   0.00000000000000E+00   0.00000000000000E+00   1.18179978767950E-15
     -2.13263407570341E-17   1.16047344692246E-15   3.28257991539533E-15   0.00000000000000E+00  -5.15248975734225E-13
      0.00000000000000E+00   0.00000000000000E+00  -1.03598743666152E-18   5.15243119173890E-10   5.15243118137902E-10
     -1.00979450272174E-15  -2.06771747599451E+01  -2.06771747599446E+01   0.00000000000000E+00   0.00000000000000E+00
     -2.29645175544254E-17  -5.15244255646833E-10  -5.15244278611351E-10  -2.27278541267359E-15
      4.23543495198903E-01
      8.00000000000000E-01   8.00000000000000E-01   0.00000000000000E+00   0.00000000000000E+00   1.09023273859251E-15
     -1.07129293765910E-17   1.07951980921592E-15   3.27596684297970E-15   0.00000000000000E+00  -1.01653755141291E-12
      0.00000000000000E+00   0.00000000000000E+00  -1.03584992982483E-18   1.01651487291623E-09   1.01651487188038E-09
     -9.89981419403521E-16  -2.11771747599451E+01  -2.11771747599441E+01   0.00000000000000E+00   0.00000000000000E+00
     -2.29649842331849E-17  -1.01651592843520E-09  -1.01651595140018E-09  -2.28598542357618E-15
      4.33543495198903E-01
      8.00000000000000E-01   8.00000000000000E-01   0.00000000000000E+00   0.00000000000000E+00   9.96192914843712E-16
      1.00857215802726E-17   1.00627863642398E-15   3.27035790482065E-15   0.00000000000000E+00  -1.89337925753316E-12
      0.00000000000000E+00   0.00000000000000E+00  -1.03568155076140E-18   1.89335823426454E-09   1.89335823322885E-09
     -9.70763276153619E-16  -2.16771747599451E+01  -2.16771747599433E+01   0.00000000000000E+00   0.00000000000000E+00
     -2.29654664698020E-17  -1.89335921654202E-09  -1.89335923950749E-09  -2.29959462866703E-15
      4.43543495198903E-01
      8.00000000000000E-01   8.00000000000000E-01   0.00000000000000E+00   0.00000000000000E+00   9.08300893038757E-16
      8.84606224755785E-18   9.17146955286314E-16   3.26602784303555E-15   0.00000000000000E+00  -3.31954433689164E-12
      0.00000000000000E+00   0.00000000000000E+00  -1.03548822215698E-18   3.31950165332755E-09   3.31950165229206E-09
     -9.52321402516100E-16  -2.21771747599451E+01  -2.21771747599418E+01   0.00000000000000E+00   0.00000000000000E+00
     -2.29659677045098E-17  -3.31950254647310E-09  -3.31950256943907E-09  -2.31370644051944E-15
      4.53543495198903E-01
      8.00000000000000E-01   8.00000000000000E-01   0.00000000000000E+00   0.00000000000000E+00   8.29976728523973E-16
      5.60520821907004E-18   8.35581936743043E-16   3.26322115747083E-15   0.00000000000000E+00  -5.47541585336392E-12
      0.00000000000000E+00   0.00000000000000E+00  -1.03526977461603E-18   5.47542138938163E-09   5.47542138834636E-09
     -9.34804092946454E-16  -2.26771747599451E+01  -2.26771747599397E+01   0.00000000000000E+00   0.00000000000000E+00
     -2.29664915113542E-17  -5.47542220096183E-09  -5.47542222392832E-09  -2.32841706452437E-15
      4.63543495198903E-01
      8.00000000000000E-01   8.00000000000000E-01   0.00000000000000E+00   0.00000000000000E+00   7.61942663109168E-16
      1.15425271993976E-17   7.73485190308565E-16   3.26210953261526E-15   0.00000000000000E+00  -8.51749723915162E-12