DF-ISE text

Info {
  version   = 1.0
  type      = xyplot
  datasets  = [
    "time"
    "Ntop OuterVoltage" "Ntop InnerVoltage" "Ntop QuasiFermiPotential" "Ntop DisplacementCurrent" "Ntop eCurrent"
    "Ntop hCurrent" "Ntop TotalCurrent" "Ntop Charge" "Ptop OuterVoltage" "Ptop InnerVoltage"
    "Ptop QuasiFermiPotential" "Ptop DisplacementCurrent" "Ptop eCurrent" "Ptop hCurrent" "Ptop TotalCurrent"
    "Ptop Charge" "Pbot OuterVoltage" "Pbot InnerVoltage" "Pbot QuasiFermiPotential" "Pbot DisplacementCurrent"
    "Pbot eCurrent" "Pbot hCurrent" "Pbot TotalCurrent" "Pbot Charge" ]
  functions = [
    Time
    OuterVoltage InnerVoltage QuasiFermiPotential DisplacementCurrent eCurrent
    hCurrent TotalCurrent Charge OuterVoltage InnerVoltage
    QuasiFermiPotential DisplacementCurrent eCurrent hCurrent TotalCurrent
    Charge OuterVoltage InnerVoltage QuasiFermiPotential DisplacementCurrent
    eCurrent hCurrent TotalCurrent Charge ]
}

Data {
      1.00000000000000E-03
      8.00000000000000E-01   8.00000000000000E-01   0.00000000000000E+00   0.00000000000000E+00   5.60131666517365E-16
      7.34445637346731E-19   5.60866112154712E-16   3.63005382270896E-15   0.00000000000000E+00   0.00000000000000E+00
      0.00000000000000E+00   0.00000000000000E+00  -1.03635243837135E-18  -6.67849450242138E-17  -6.78212974625852E-17
     -1.70446966441389E-15  -5.00000000000000E-02  -5.00000000000000E-02   0.00000000000000E+00   0.00000000000000E+00
     -2.29526236898283E-17  -4.70092191002299E-16  -4.93044814692127E-16  -1.92558415829506E-15
      2.91111111111111E-03
      8.00000000000000E-01   8.00000000000000E-01   0.00000000000000E+00   0.00000000000000E+00   5.91752939650024E-16
     -3.07108095263146E-19   5.91445831554761E-16   3.63093493728181E-15   0.00000000000000E+00   0.00000000000000E+00
      0.00000000000000E+00   0.00000000000000E+00  -1.03635243772699E-18  -6.66519662888357E-17  -6.76883187265627E-17
     -1.70446743195110E-15  -1.45555555555556E-01  -1.45555555555555E-01   0.00000000000000E+00   0.00000000000000E+00
     -2.29526526211426E-17  -5.00804860207055E-16  -5.23757512828198E-16  -1.92646750533070E-15
      6.56345679012346E-03
      8.00000000000000E-01   8.00000000000000E-01   0.00000000000000E+00   0.00000000000000E+00   6.48239027543288E-16
      7.54151648871704E-19   6.48993179192160E-16   3.63261412929605E-15   0.00000000000000E+00   0.00000000000000E+00
      0.00000000000000E+00   0.00000000000000E+00  -1.03635243572942E-18  -6.64207023397925E-17  -6.74570547755220E-17
     -1.70446050901089E-15  -3.28172839506173E-01  -3.28172839506173E-01   0.00000000000000E+00   0.00000000000000E+00
     -2.29527079225045E-17  -5.58583416494133E-16  -5.81536124416638E-16  -1.92815362028515E-15
      1.35434951989026E-02
      8.00000000000000E-01   8.00000000000000E-01   0.00000000000000E+00   0.00000000000000E+00   7.45453864666311E-16
      9.83547143094159E-19   7.46437411809405E-16   3.63579734731347E-15   0.00000000000000E+00   0.00000000000000E+00
      0.00000000000000E+00   0.00000000000000E+00  -1.03635242655183E-18  -6.60467947486400E-17  -6.70831471751918E-17
     -1.70442870641878E-15  -6.77174759945130E-01  -6.77174759945130E-01   0.00000000000000E+00   0.00000000000000E+00
     -2.29528136062717E-17  -6.56401451027941E-16  -6.79354264634212E-16  -1.93136864089469E-15
      2.35434951989026E-02
      8.00000000000000E-01   8.00000000000000E-01   0.00000000000000E+00   0.00000000000000E+00   8.67514168061917E-16
      4.19171668165616E-19   8.67933339730083E-16   3.64022963194047E-15   0.00000000000000E+00   0.00000000000000E+00
      0.00000000000000E+00   0.00000000000000E+00  -1.03635238059136E-18  -6.56601923778577E-17  -6.66965447584490E-17
     -1.70426950679855E-15  -1.17717475994513E+00  -1.17717475994513E+00   0.00000000000000E+00   0.00000000000000E+00
     -2.29529649643544E-17  -7.78283830007279E-16  -8.01236794971634E-16  -1.93596012514192E-15
      3.35434951989026E-02
      8.00000000000000E-01   8.00000000000000E-01   0.00000000000000E+00   0.00000000000000E+00   9.72997035759838E-16
      3.23341673294097E-19   9.73320377433132E-16   3.64427126914250E-15   0.00000000000000E+00   0.00000000000000E+00
      0.00000000000000E+00   0.00000000000000E+00  -1.03635222182857E-18  -6.54835744804273E-17  -6.65199267022559E-17
     -1.70371984923864E-15  -1.67717475994513E+00  -1.67717475994513E+00   0.00000000000000E+00   0.00000000000000E+00
     -2.29531167144233E-17  -8.83847334016451E-16  -9.06800450730874E-16  -1.94055141990385E-15
      4.35434951989026E-02
      8.00000000000000E-01   8.00000000000000E-01   0.00000000000000E+00   0.00000000000000E+00   1.05987033186181E-15
     -9.33332972428827E-19   1.05893699888938E-15   3.64736094552950E-15   0.00000000000000E+00   0.00000000000000E+00
      0.00000000000000E+00   0.00000000000000E+00  -1.03635177454614E-18  -6.56316478920841E-17  -6.66679996666303E-17
     -1.70216989509298E-15  -2.17717475994513E+00  -2.17717475994513E+00   0.00000000000000E+00   0.00000000000000E+00
     -2.29532703953693E-17  -9.69315728827380E-16  -9.92268999222749E-16  -1.94519105043652E-15
      5.35434951989026E-02
      8.00000000000000E-01   8.00000000000000E-01   0.00000000000000E+00   0.00000000000000E+00   1.13166234241721E-15
     -4.10210379500357E-18   1.12756023862220E-15   3.64852034438562E-15   0.00000000000000E+00   0.00000000000000E+00
      0.00000000000000E+00   0.00000000000000E+00  -1.03635074837803E-18  -6.63318570572364E-17  -6.73682078056145E-17
     -1.69859220033395E-15  -2.67717475994513E+00  -2.67717475994513E+00   0.00000000000000E+00   0.00000000000000E+00
     -2.29534276030343E-17  -1.03723860321355E-15  -1.06019203081659E-15  -1.94992814405167E-15
      6.35434951989026E-02
      8.00000000000000E-01   8.00000000000000E-01   0.00000000000000E+00   0.00000000000000E+00   1.19096651532837E-15
      9.92272972044150E-18   1.20088924504881E-15   3.64674209094565E-15   0.00000000000000E+00   0.00000000000000E+00
      0.00000000000000E+00   0.00000000000000E+00  -1.03634887647429E-18  -6.79512523982329E-17  -6.89876012747072E-17
     -1.69193980935480E-15  -3.17717475994513E+00  -3.17717475994513E+00   0.00000000000000E+00   0.00000000000000E+00
     -2.29535896388108E-17  -1.10894805413530E-15  -1.13190164377411E-15  -1.95480228159084E-15
      7.35434951989026E-02
      8.00000000000000E-01   8.00000000000000E-01   0.00000000000000E+00   0.00000000000000E+00   1.23842374462705E-15
      2.09713975238802E-18   1.24052088437944E-15   3.64189046548775E-15   0.00000000000000E+00   0.00000000000000E+00
      0.00000000000000E+00   0.00000000000000E+00  -1.03634618556231E-18  -7.08673357174867E-17  -7.19036819030490E-17
     -1.68204047380155E-15  -3.67717475994513E+00  -3.67717475994513E+00   0.00000000000000E+00   0.00000000000000E+00
     -2.29537577170935E-17  -1.14566344475930E-15  -1.16861720247639E-15  -1.95984999168620E-15
      8.35434951989026E-02
      8.00000000000000E-01   8.00000000000000E-01   0.00000000000000E+00   0.00000000000000E+00   1.27510635323336E-15
     -1.50309036690961E-18   1.27360326286645E-15   3.63476358156060E-15   0.00000000000000E+00   0.00000000000000E+00
      0.00000000000000E+00   0.00000000000000E+00  -1.03634295821891E-18  -7.50012171232629E-17  -7.60375600814818E-17
     -1.66965944078965E-15  -4.17717475994513E+00  -4.17717475994513E+00   0.00000000000000E+00   0.00000000000000E+00
     -2.29539329411202E-17  -1.17461176984385E-15  -1.19756570278497E-15  -1.96510414077096E-15
      9.35434951989026E-02
      8.00000000000000E-01   8.00000000000000E-01   0.00000000000000E+00   0.00000000000000E+00   1.30182902149262E-15
      7.30015153238751E-18   1.30912917302501E-15   3.62617724306667E-15   0.00000000000000E+00   0.00000000000000E+00
      0.00000000000000E+00   0.00000000000000E+00  -1.03633943523542E-18  -7.91257370317236E-17  -8.01620764669590E-17
     -1.65559201500699E-15  -4.67717475994513E+00  -4.67717475994513E+00   0.00000000000000E+00   0.00000000000000E+00
     -2.29541160095651E-17  -1.20601298054849E-15  -1.22896709655805E-15  -1.97058522805968E-15
      1.03543495198903E-01
      8.00000000000000E-01   8.00000000000000E-01   0.00000000000000E+00   0.00000000000000E+00   1.31959640296854E-15
      1.28205424789947E-18   1.32087845721644E-15   3.61659875239446E-15   0.00000000000000E+00   0.00000000000000E+00
      0.00000000000000E+00   0.00000000000000E+00  -1.03633573720597E-18  -8.16771651358865E-17  -8.27135008730924E-17
     -1.64029683295004E-15  -5.17717475994513E+00  -5.17717475994513E+00   0.00000000000000E+00   0.00000000000000E+00
     -2.29543072306168E-17  -1.21521064911273E-15  -1.23816495634335E-15  -1.97630191944441E-15
      1.13543495198903E-01
      8.00000000000000E-01   8.00000000000000E-01   0.00000000000000E+00   0.00000000000000E+00   1.33108068372218E-15
      1.41683727515607E-18   1.33249752099734E-15   3.60625500206616E-15   0.00000000000000E+00   0.00000000000000E+00
      0.00000000000000E+00   0.00000000000000E+00  -1.03633191731005E-18  -8.25924690644236E-17  -8.36288009817336E-17
     -1.62399856407194E-15  -5.67717475994513E+00  -5.67717475994513E+00   0.00000000000000E+00   0.00000000000000E+00
     -2.29545066994740E-17  -1.22591421331613E-15  -1.24886872001560E-15  -1.98225643799422E-15
      1.23543495198903E-01
      8.00000000000000E-01   8.00000000000000E-01   0.00000000000000E+00   0.00000000000000E+00   1.33901715305649E-15
      1.50973354709503E-18   1.34052688660358E-15   3.59524728243195E-15   0.00000000000000E+00   0.00000000000000E+00
      0.00000000000000E+00   0.00000000000000E+00  -1.03632799995654E-18  -8.25642775432776E-17  -8.36006055432342E-17
     -1.60679935100432E-15  -6.17717475994513E+00  -6.17717475994513E+00   0.00000000000000E+00   0.00000000000000E+00
     -2.29547144096926E-17  -1.23397156665066E-15  -1.25692628106035E-15  -1.98844793142763E-15
      1.33543495198903E-01
      8.00000000000000E-01   8.00000000000000E-01   0.00000000000000E+00   0.00000000000000E+00   1.34502212101391E-15
     -2.46335833442040E-18   1.34255876267949E-15   3.58360351851737E-15   0.00000000000000E+00   0.00000000000000E+00
      0.00000000000000E+00   0.00000000000000E+00  -1.03632399667260E-18  -8.20570465101023E-17  -8.30933705067749E-17
     -1.58872963046570E-15  -6.67717475994513E+00  -6.67717475994513E+00   0.00000000000000E+00   0.00000000000000E+00
     -2.29549302999661E-17  -1.23651046187275E-15  -1.25946539217272E-15  -1.99487388805167E-15
      1.43543495198903E-01
      8.00000000000000E-01   8.00000000000000E-01   0.00000000000000E+00   0.00000000000000E+00   1.34989540210088E-15
     -1.10971857114860E-17   1.33879821638940E-15   3.57129499123819E-15   0.00000000000000E+00   0.00000000000000E+00
      0.00000000000000E+00   0.00000000000000E+00  -1.03631991188513E-18  -8.12871438173526E-17  -8.23234637292378E-17
     -1.56976437852081E-15  -7.17717475994513E+00  -7.17717475994513E+00   0.00000000000000E+00   0.00000000000000E+00
     -2.29551542696982E-17  -1.23351959839046E-15  -1.25647475266016E-15  -2.00153061271738E-15
      1.53543495198903E-01
      8.00000000000000E-01   8.00000000000000E-01   0.00000000000000E+00   0.00000000000000E+00   1.35403393182126E-15
     -1.09183197978610E-17   1.34311561202340E-15   3.55823845328745E-15   0.00000000000000E+00   0.00000000000000E+00
      0.00000000000000E+00   0.00000000000000E+00  -1.03631574510823E-18  -8.03544048072623E-17  -8.13907205523706E-17
     -1.54982511222047E-15  -7.67717475994513E+00  -7.67717475994513E+00   0.00000000000000E+00   0.00000000000000E+00
     -2.29553861825119E-17  -1.23876950528851E-15  -1.26172489147103E-15  -2.00841334106698E-15
      1.63543495198903E-01
      8.00000000000000E-01   8.00000000000000E-01   0.00000000000000E+00   0.00000000000000E+00   1.35765560710174E-15
      4.72163062721725E-18   1.36237723772896E-15   3.54430784830711E-15   0.00000000000000E+00   0.00000000000000E+00
      0.00000000000000E+00   0.00000000000000E+00  -1.03631149307650E-18  -7.93057465356305E-17  -8.03420580287070E-17
     -1.52879125722905E-15  -8.17717475994513E+00  -8.17717475994513E+00   0.00000000000000E+00   0.00000000000000E+00
     -2.29556258778116E-17  -1.25907955382244E-15  -1.28203517970025E-15  -2.01551659107806E-15
      1.73543495198903E-01
      8.00000000000000E-01   8.00000000000000E-01   0.00000000000000E+00   0.00000000000000E+00   1.36087483169854E-15
     -4.56241309774373E-18   1.35631241860080E-15   3.52940812820860E-15   0.00000000000000E+00   0.00000000000000E+00
      0.00000000000000E+00   0.00000000000000E+00  -1.03630715589208E-18  -7.81458323771725E-17  -7.91821395330645E-17
     -1.50657215688323E-15  -8.67717475994513E+00  -8.67717475994513E+00   0.00000000000000E+00   0.00000000000000E+00
     -2.29558732317199E-17  -1.25417440583602E-15  -1.27713027906774E-15  -2.02283597132537E-15
      1.83543495198903E-01
      8.00000000000000E-01   8.00000000000000E-01   0.00000000000000E+00   0.00000000000000E+00   1.36375344161004E-15
      6.99710364123296E-18   1.37075054525127E-15   3.51363597548095E-15   0.00000000000000E+00   0.00000000000000E+00
      0.00000000000000E+00   0.00000000000000E+00  -1.03630274791939E-18  -7.67810134644288E-17  -7.78173162123482E-17
     -1.48326404612801E-15  -9.17717475994513E+00  -9.17717475994513E+00   0.00000000000000E+00   0.00000000000000E+00
     -2.29561282842479E-17  -1.26997710075467E-15  -1.29293322903892E-15  -2.03037192935294E-15
      1.93543495198903E-01
      8.00000000000000E-01   8.00000000000000E-01   0.00000000000000E+00   0.00000000000000E+00   1.36629181736100E-15
      1.66384530391012E-17   1.38293027040010E-15   3.49732647804454E-15   0.00000000000000E+00   0.00000000000000E+00
      0.00000000000000E+00   0.00000000000000E+00  -1.03629829856343E-18  -7.47816341668568E-17  -7.58179324654202E-17
     -1.45919579056835E-15  -9.67717475994513E+00  -9.67717475994513E+00   0.00000000000000E+00   0.00000000000000E+00
     -2.29563912722433E-17  -1.28415594666244E-15  -1.30711233793468E-15  -2.03813068747620E-15
      2.03543495198903E-01
      8.00000000000000E-01   8.00000000000000E-01   0.00000000000000E+00   0.00000000000000E+00   1.36846294510736E-15
     -2.56659513892867E-19   1.36820628559347E-15   3.48083786121079E-15   0.00000000000000E+00   0.00000000000000E+00
      0.00000000000000E+00   0.00000000000000E+00  -1.03629383557023E-18  -7.05141573891702E-17  -7.15504512247405E-17
     -1.43471874700264E-15  -1.01771747599451E+01  -1.01771747599451E+01   0.00000000000000E+00   0.00000000000000E+00
     -2.29566624566319E-17  -1.27369917191209E-15  -1.29665583436872E-15  -2.04611911420815E-15
      2.13543495198903E-01
      8.00000000000000E-01   8.00000000000000E-01   0.00000000000000E+00   0.00000000000000E+00   1.37025335000183E-15
     -3.01900032823946E-18   1.36723434967359E-15   3.46438881305316E-15   0.00000000000000E+00   0.00000000000000E+00
      0.00000000000000E+00   0.00000000000000E+00  -1.03628937482169E-18  -5.80313829590414E-17  -5.90676723338630E-17
     -1.41004787083603E-15  -1.06771747599451E+01  -1.06771747599451E+01   0.00000000000000E+00   0.00000000000000E+00
     -2.29569419939405E-17  -1.28520973534579E-15  -1.30816667733973E-15  -2.05434094221713E-15
      2.23543495198903E-01
      8.00000000000000E-01   8.00000000000000E-01   0.00000000000000E+00   0.00000000000000E+00   1.37165528330899E-15
      5.01754787955367E-18   1.37667283118854E-15   3.44807955785469E-15   0.00000000000000E+00   0.00000000000000E+00
      0.00000000000000E+00   0.00000000000000E+00  -1.03628490874664E-18  -1.60489247611384E-17  -1.70852096698851E-17
     -1.38528230762654E-15  -1.11771747599451E+01  -1.11771747599451E+01   0.00000000000000E+00   0.00000000000000E+00
     -2.29572299519236E-17  -1.33663039156673E-15  -1.35958762151865E-15  -2.06279725022814E-15
      2.33543495198903E-01
      8.00000000000000E-01   8.00000000000000E-01   0.00000000000000E+00   0.00000000000000E+00   1.37266655960299E-15
      1.14893274761052E-17   1.38415588707909E-15   3.43195169955965E-15   0.00000000000000E+00   0.00000000000000E+00
      0.00000000000000E+00   0.00000000000000E+00  -1.03628047259456E-18   1.29128720509796E-16   1.28092440037201E-16
     -1.36046388407665E-15  -1.16771747599451E+01  -1.16771747599451E+01   0.00000000000000E+00   0.00000000000000E+00
     -2.29575263550430E-17  -1.48929080076125E-15  -1.51224832711629E-15  -2.07148781548299E-15
      2.43543495198903E-01
      8.00000000000000E-01   8.00000000000000E-01   0.00000000000000E+00   0.00000000000000E+00   1.37331057381477E-15
      1.79482415102921E-17   1.39125881532506E-15   3.41602273803194E-15   0.00000000000000E+00   0.00000000000000E+00
      0.00000000000000E+00   0.00000000000000E+00  -1.03627604700750E-18   6.23820545154063E-16   6.22784269107056E-16
     -1.33561085798705E-15  -1.21771747599451E+01  -1.21771747599451E+01   0.00000000000000E+00   0.00000000000000E+00
     -2.29578312103118E-17  -1.99108525322181E-15  -2.01404308443212E-15  -2.08041188004490E-15
      2.53543495198903E-01
      8.00000000000000E-01   8.00000000000000E-01   0.00000000000000E+00   0.00000000000000E+00   1.37364511102700E-15
      1.42712126099794E-17   1.38791632363698E-15   3.40030081196430E-15   0.00000000000000E+00   0.00000000000000E+00
      0.00000000000000E+00   0.00000000000000E+00  -1.03627161561305E-18   2.26231466116727E-15   2.26127838955166E-15
     -1.31073234329297E-15  -1.26771747599451E+01  -1.26771747599451E+01   0.00000000000000E+00   0.00000000000000E+00
     -2.29581445180378E-17  -3.62623656867061E-15  -3.64919471318865E-15  -2.08956846867134E-15
      2.63543495198903E-01
      8.00000000000000E-01   8.00000000000000E-01   0.00000000000000E+00   0.00000000000000E+00   1.37374004402244E-15
      1.91968736009360E-17   1.39293691762338E-15   3.38479062573161E-15   0.00000000000000E+00   0.00000000000000E+00
      0.00000000000000E+00   0.00000000000000E+00  -1.03626722742299E-18   7.51431389786383E-15   7.51327763063640E-15
     -1.28583411567465E-15  -1.31771747599451E+01  -1.31771747599451E+01   0.00000000000000E+00   0.00000000000000E+00
     -2.29584662759166E-17  -8.88325608198395E-15  -8.90621454825986E-15  -2.09895651005698E-15
      2.73543495198903E-01
      8.00000000000000E-01   8.00000000000000E-01   0.00000000000000E+00   0.00000000000000E+00   1.37364665275438E-15
     -3.54832119638705E-19   1.37329182063474E-15   3.36949597928447E-15   0.00000000000000E+00   0.00000000000000E+00
      0.00000000000000E+00   0.00000000000000E+00  -1.03626280470109E-18   2.37790709106528E-14   2.37780346478481E-14
     -1.26092109473174E-15  -1.36771747599451E+01  -1.36771747599451E+01   0.00000000000000E+00   0.00000000000000E+00
     -2.29587964806321E-17  -2.51283676720021E-14  -2.51513264684828E-14  -2.10857488455273E-15
      2.83543495198903E-01
      8.00000000000000E-01   8.00000000000000E-01   0.00000000000000E+00   0.00000000000000E+00   1.37337771976048E-15
     -2.57676280464285E-17   1.34761009171405E-15   3.35442106829345E-15   0.00000000000000E+00  -9.18447372075268E-17
      0.00000000000000E+00   0.00000000000000E+00  -1.03625844602325E-18   7.24017653302883E-14   7.24007290718423E-14
     -1.23599862000795E-15  -1.41771747599451E+01  -1.41771747599451E+01   0.00000000000000E+00   0.00000000000000E+00
     -2.29591351286730E-17  -7.37253800284277E-14  -7.37483391635564E-14  -2.11842244828551E-15
      2.93543495198903E-01
      8.00000000000000E-01   8.00000000000000E-01   0.00000000000000E+00   0.00000000000000E+00   1.37288802921668E-15
      2.29876093359789E-17   1.39587563855266E-15   3.33957140895747E-15   0.00000000000000E+00  -1.83689474415054E-16
      0.00000000000000E+00   0.00000000000000E+00  -1.03625405941000E-18   2.12623821453441E-13   2.12622785199382E-13
     -1.21107335224167E-15  -1.46771747599451E+01  -1.46771747599451E+01   0.00000000000000E+00   0.00000000000000E+00
     -2.29594822171368E-17  -2.13995701355717E-13  -2.14018660837934E-13  -2.12849805671581E-15
      3.03543495198903E-01
      8.00000000000000E-01   8.00000000000000E-01   0.00000000000000E+00   0.00000000000000E+00   1.37203261437849E-15
     -3.02060958044894E-17   1.34182651857400E-15   3.32495477302392E-15   0.00000000000000E+00  -6.42913160452687E-16
      0.00000000000000E+00   0.00000000000000E+00  -1.03624869457306E-18   6.02476306234949E-13   6.02475269986255E-13
     -1.18615416633653E-15  -1.51771747599451E+01  -1.51771747599451E+01   0.00000000000000E+00   0.00000000000000E+00
     -2.29598377451730E-17  -6.03794136667087E-13  -6.03817096504832E-13  -2.13880060668740E-15
      3.13543495198903E-01
      8.00000000000000E-01   8.00000000000000E-01   0.00000000000000E+00   0.00000000000000E+00   1.37046919173200E-15
     -3.09659099558014E-17   1.33950328177620E-15   3.31058238764071E-15   0.00000000000000E+00  -1.65320526973548E-15
      0.00000000000000E+00   0.00000000000000E+00  -1.03624416571365E-18   1.64665756716996E-12   1.64665653092579E-12
     -1.16125326021116E-15  -1.56771747599451E+01  -1.56771747599451E+01   0.00000000000000E+00   0.00000000000000E+00
     -2.29602017171750E-17  -1.64797307400585E-12  -1.64799603420756E-12  -2.14932912742954E-15
      3.23543495198903E-01
      8.00000000000000E-01   8.00000000000000E-01   0.00000000000000E+00   0.00000000000000E+00   1.36744317668787E-15
      1.21670338517584E-18   1.36865988007305E-15   3.29647068224353E-15   0.00000000000000E+00  -4.31670264875376E-15
      0.00000000000000E+00   0.00000000000000E+00  -1.03623838695245E-18   4.33857824499652E-12   4.33857720875814E-12
     -1.13638770137926E-15  -1.61771747599451E+01  -1.61771747599451E+01   0.00000000000000E+00   0.00000000000000E+00
     -2.29605741497965E-17  -4.33992290806405E-12  -4.33994586863820E-12  -2.16008298086427E-15
      3.33543495198903E-01
      8.00000000000000E-01   8.00000000000000E-01   0.00000000000000E+00   0.00000000000000E+00   1.36135785577982E-15
      2.58375909670174E-17   1.38719544674684E-15   3.28264399899453E-15   0.00000000000000E+00  -1.10213684649032E-14
      0.00000000000000E+00   0.00000000000000E+00  -1.03622820948073E-18   1.10108676165707E-11   1.10108665803425E-11
     -1.11158170948290E-15  -1.66771747599451E+01  -1.66771747599451E+01   0.00000000000000E+00   0.00000000000000E+00
     -2.29609550870296E-17  -1.10122308148341E-11  -1.10122537757892E-11  -2.17106228951163E-15
      3.43543495198903E-01
      8.00000000000000E-01   8.00000000000000E-01   0.00000000000000E+00   0.00000000000000E+00   1.34903555532879E-15
      1.45673591653660E-17   1.36360291449416E-15   3.26913890097097E-15   0.00000000000000E+00  -2.69105080018053E-14
      0.00000000000000E+00   0.00000000000000E+00  -1.03620747817853E-18   2.68878572775381E-11   2.68878562413306E-11
     -1.08687009400093E-15  -1.71771747599451E+01  -1.71771747599451E+01   0.00000000000000E+00   0.00000000000000E+00
     -2.29613446309688E-17  -2.68891968829004E-11  -2.68892198442450E-11  -2.18226880697003E-15
      3.53543495198903E-01
      8.00000000000000E-01   8.00000000000000E-01   0.00000000000000E+00   0.00000000000000E+00   1.32479353616503E-15
      7.73871368129762E-20   1.32487092330184E-15   3.25601093546221E-15   0.00000000000000E+00  -6.30973344615709E-14
      0.00000000000000E+00   0.00000000000000E+00  -1.03616216151467E-18   6.30829926079525E-11   6.30829915717903E-11
     -1.06230335644912E-15  -1.76771747599451E+01  -1.76771747599451E+01   0.00000000000000E+00   0.00000000000000E+00
     -2.29617430007018E-17  -6.30842934809711E-11  -6.30843164427141E-11  -2.19370757901308E-15
      3.63543495198903E-01
      8.00000000000000E-01   8.00000000000000E-01   0.00000000000000E+00   0.00000000000000E+00   1.28026790421655E-15
      1.67141179802761E-17   1.29698202219682E-15   3.24334467983265E-15   0.00000000000000E+00  -1.41900118985629E-13
      0.00000000000000E+00   0.00000000000000E+00  -1.03606698936367E-18   1.41908902126735E-10   1.41908901090668E-10
     -1.03795482076529E-15  -1.81771747599451E+01  -1.81771747599450E+01   0.00000000000000E+00   0.00000000000000E+00
     -2.29621506360595E-17  -1.41910175110539E-10  -1.41910198072690E-10  -2.20538985906737E-15
      3.73543495198903E-01
      8.00000000000000E-01   8.00000000000000E-01   0.00000000000000E+00   0.00000000000000E+00   1.20718832045971E-15
     -9.10633010837136E-18   1.19808199035134E-15   3.23126701521901E-15   0.00000000000000E+00  -3.05291906477819E-13
      0.00000000000000E+00   0.00000000000000E+00  -1.03588865231564E-18   3.05249056618837E-10   3.05249055582949E-10
     -1.01392934969714E-15  -1.86771747599451E+01  -1.86771747599448E+01   0.00000000000000E+00   0.00000000000000E+00
     -2.29625683605160E-17  -3.05250230702369E-10  -3.05250253664937E-10  -2.21733766552187E-15
      3.83543495198903E-01
      8.00000000000000E-01   8.00000000000000E-01   0.00000000000000E+00   0.00000000000000E+00   1.10409969323100E-15
      2.58931485578740E-18   1.10668900808679E-15   3.21996092648248E-15   0.00000000000000E+00  -6.25646349857672E-13
      0.00000000000000E+00   0.00000000000000E+00  -1.03560404474345E-18   6.25621609869045E-10   6.25621608833441E-10
     -9.90371182013524E-16  -1.91771747599451E+01  -1.91771747599445E+01   0.00000000000000E+00   0.00000000000000E+00
     -2.29629975958165E-17  -6.25622692559452E-10  -6.25622715522449E-10  -2.22958974446895E-15
      3.93543495198903E-01
      8.00000000000000E-01   8.00000000000000E-01   0.00000000000000E+00   0.00000000000000E+00   9.81173336070832E-16
      1.49939266989660E-17   9.96167262769798E-16   3.20967239413439E-15   0.00000000000000E+00  -1.21675907852531E-12
      0.00000000000000E+00   0.00000000000000E+00  -1.03522148792314E-18   1.21675969754889E-09   1.21675969651367E-09
     -9.67465230699133E-16  -1.96771747599451E+01  -1.96771747599439E+01   0.00000000000000E+00   0.00000000000000E+00
     -2.29634405663506E-17  -1.21676066971749E-09  -1.21676069268093E-09  -2.24220716343526E-15
      4.03543495198903E-01
      8.00000000000000E-01   8.00000000000000E-01   0.00000000000000E+00   0.00000000000000E+00   8.55203663532644E-16
     -3.24574529707449E-17   8.22746210561900E-16   3.20069881225543E-15   0.00000000000000E+00  -2.23669488521490E-12
      0.00000000000000E+00   0.00000000000000E+00  -1.03477454271175E-18   2.23672753359594E-09   2.23672753256116E-09
     -9.45424092269428E-16  -2.01771747599451E+01  -2.01771747599429E+01   0.00000000000000E+00   0.00000000000000E+00
     -2.29639003580637E-17  -2.23672833234346E-09  -2.23672835530736E-09  -2.25527471998601E-15
      4.13543495198903E-01
      8.00000000000000E-01   8.00000000000000E-01   0.00000000000000E+00   0.00000000000000E+00   7.39540239560987E-16
      1.83770340843955E-17   7.57917273645383E-16   3.19335093137717E-15   0.00000000000000E+00  -3.87566422068321E-12
      0.00000000000000E+00   0.00000000000000E+00  -1.03429262993819E-18   3.87570482915025E-09   3.87570482811596E-09
     -9.24456965214708E-16  -2.06771747599451E+01  -2.06771747599413E+01   0.00000000000000E+00   0.00000000000000E+00
     -2.29643806808316E-17  -3.87570556306884E-09  -3.87570558603322E-09  -2.26889396616246E-15
      4.23543495198903E-01
      8.00000000000000E-01   8.00000000000000E-01   0.00000000000000E+00   0.00000000000000E+00   6.39615838068013E-16
     -1.53840910118851E-18   6.38077428966825E-16   3.18789622838506E-15   0.00000000000000E+00  -6.32755132517535E-12
      0.00000000000000E+00   0.00000000000000E+00  -1.03378388401609E-18   6.32752340493793E-09   6.32752340390414E-09
     -9.04728691375357E-16  -2.11771747599451E+01  -2.11771747599388E+01   0.00000000000000E+00   0.00000000000000E+00
     -2.29648853188787E-17  -6.32752401901668E-09  -6.32752404198157E-09  -2.28316753700971E-15
      4.33543495198903E-01
      8.00000000000000E-01   8.00000000000000E-01   0.00000000000000E+00   0.00000000000000E+00   5.55297278931947E-16
     -7.56443640346573E-18   5.47732842528481E-16   3.18450899412175E-15   0.00000000000000E+00  -9.75611536513232E-12
      0.00000000000000E+00   0.00000000000000E+00  -1.03323978413070E-18   9.75608567090615E-09   9.75608566987291E-09
     -8.86328001213721E-16  -2.16771747599451E+01  -2.16771747599354E+01   0.00000000000000E+00   0.00000000000000E+00
     -2.29654174858993E-17  -9.75608619464022E-09  -9.75608621760564E-09  -2.29818099290803E-15
      4.43543495198903E-01
      8.00000000000000E-01   8.00000000000000E-01   0.00000000000000E+00   0.00000000000000E+00   4.84673655509438E-16
     -8.56136489757827E-18   4.76112290611860E-16   3.18325094737218E-15   0.00000000000000E+00  -1.42726721620497E-11
      0.00000000000000E+00   0.00000000000000E+00  -1.03264643843447E-18   1.42726408325210E-08   1.42726408314884E-08
     -8.69260125012898E-16  -2.21771747599451E+01  -2.21771747599309E+01   0.00000000000000E+00   0.00000000000000E+00
     -2.29659793917380E-17  -1.42726412846345E-08  -1.42726413076005E-08  -2.31399082235928E-15
      4.53543495198903E-01
      8.00000000000000E-01   8.00000000000000E-01   0.00000000000000E+00   0.00000000000000E+00   4.25817170450706E-16
     -1.06260132229602E-17   4.15191157227746E-16   3.18408515179086E-15   0.00000000000000E+00  -1.99315019556170E-11
      0.00000000000000E+00   0.00000000000000E+00  -1.03199115865326E-18   1.99315221000761E-08   1.99315220990441E-08
     -8.53462617418964E-16  -2.26771747599451E+01  -2.26771747599252E+01   0.00000000000000E+00   0.00000000000000E+00
     -2.29665721640268E-17  -1.99315224912684E-08  -1.99315225142349E-08  -2.33062253437189E-15
      4.63543495198903E-01
      8.00000000000000E-01   8.00000000000000E-01   0.00000000000000E+00   0.00000000000000E+00   3.76969174080809E-16
      1.62934241100161E-17   3.93262598190825E-16   3.18690775549375E-15   0.00000000000000E+00  -2.67400441695482E-11