DF-ISE text

Info {
  version   = 1.0
  type      = xyplot
  datasets  = [
    "time"
    "Ntop OuterVoltage" "Ntop InnerVoltage" "Ntop QuasiFermiPotential" "Ntop DisplacementCurrent" "Ntop eCurrent"
    "Ntop hCurrent" "Ntop TotalCurrent" "Ntop Charge" "Ptop OuterVoltage" "Ptop InnerVoltage"
    "Ptop QuasiFermiPotential" "Ptop DisplacementCurrent" "Ptop eCurrent" "Ptop hCurrent" "Ptop TotalCurrent"
    "Ptop Charge" "Pbot OuterVoltage" "Pbot InnerVoltage" "Pbot QuasiFermiPotential" "Pbot DisplacementCurrent"
    "Pbot eCurrent" "Pbot hCurrent" "Pbot TotalCurrent" "Pbot Charge" ]
  functions = [
    Time
    OuterVoltage InnerVoltage QuasiFermiPotential DisplacementCurrent eCurrent
    hCurrent TotalCurrent Charge OuterVoltage InnerVoltage
    QuasiFermiPotential DisplacementCurrent eCurrent hCurrent TotalCurrent
    Charge OuterVoltage InnerVoltage QuasiFermiPotential DisplacementCurrent
    eCurrent hCurrent TotalCurrent Charge ]
}

Data {
      1.00000000000000E-03
      8.00000000000000E-01   8.00000000000000E-01   0.00000000000000E+00   0.00000000000000E+00   5.56782328919101E-16
      2.09087862809785E-19   5.56991416781911E-16   7.23500260601457E-15   0.00000000000000E+00   0.00000000000000E+00
      0.00000000000000E+00   0.00000000000000E+00  -1.03632313361363E-18  -6.32867924919469E-17  -6.43231156255605E-17
     -5.30941837879496E-15  -5.00000000000000E-02  -5.00000000000000E-02   0.00000000000000E+00   0.00000000000000E+00
     -2.29526236920841E-17  -4.69715677464266E-16  -4.92668301156350E-16  -1.92558422721961E-15
      2.91111111111111E-03
      8.00000000000000E-01   8.00000000000000E-01   0.00000000000000E+00   0.00000000000000E+00   5.88399774958034E-16
     -9.42178960811525E-19   5.87457595997222E-16   7.23588436194828E-15   0.00000000000000E+00   0.00000000000000E+00
      0.00000000000000E+00   0.00000000000000E+00  -1.03632313307784E-18  -6.31586070145222E-17  -6.41949301476001E-17
     -5.30941675650615E-15  -1.45555555555556E-01  -1.45555555555555E-01   0.00000000000000E+00   0.00000000000000E+00
     -2.29526526244232E-17  -5.00310013225200E-16  -5.23262665849623E-16  -1.92646760544212E-15
      6.56345679012346E-03
      8.00000000000000E-01   8.00000000000000E-01   0.00000000000000E+00   0.00000000000000E+00   6.44874055719145E-16
     -6.05574347235019E-20   6.44813498284421E-16   7.23756554414368E-15   0.00000000000000E+00   0.00000000000000E+00
      0.00000000000000E+00   0.00000000000000E+00  -1.03632313141682E-18  -6.29402839818491E-17  -6.39766071132659E-17
     -5.30941172730335E-15  -3.28172839506173E-01  -3.28172839506173E-01   0.00000000000000E+00   0.00000000000000E+00
     -2.29527079289565E-17  -5.57884183242199E-16  -5.80836891171156E-16  -1.92815381684032E-15
      1.35434951989026E-02
      8.00000000000000E-01   8.00000000000000E-01   0.00000000000000E+00   0.00000000000000E+00   7.42035490382011E-16
     -2.30958803253840E-20   7.42012394501686E-16   7.24075792786404E-15   0.00000000000000E+00   0.00000000000000E+00
      0.00000000000000E+00   0.00000000000000E+00  -1.03632312379471E-18  -6.25899874798783E-17  -6.36263106036730E-17
     -5.30938865055024E-15  -6.77174759945130E-01  -6.77174759945130E-01   0.00000000000000E+00   0.00000000000000E+00
     -2.29528136272190E-17  -6.55433270270794E-16  -6.78386083898013E-16  -1.93136927731380E-15
      2.35434951989026E-02
      8.00000000000000E-01   8.00000000000000E-01   0.00000000000000E+00   0.00000000000000E+00   8.63841075652400E-16
     -1.73846381025558E-18   8.62102611842144E-16   7.24523654442094E-15   0.00000000000000E+00   0.00000000000000E+00
      0.00000000000000E+00   0.00000000000000E+00  -1.03632308579766E-18  -6.22283116929228E-17  -6.32646347787204E-17
     -5.30927363639847E-15  -1.17717475994513E+00  -1.17717475994513E+00   0.00000000000000E+00   0.00000000000000E+00
     -2.29529650562221E-17  -7.75885012007202E-16  -7.98837977063424E-16  -1.93596290802247E-15
      3.35434951989026E-02
      8.00000000000000E-01   8.00000000000000E-01   0.00000000000000E+00   0.00000000000000E+00   9.68562457391262E-16
      3.37790160989454E-18   9.71940359001157E-16   7.24944211389814E-15   0.00000000000000E+00   0.00000000000000E+00
      0.00000000000000E+00   0.00000000000000E+00  -1.03632295607848E-18  -6.20489368701539E-17  -6.30852598262324E-17
     -5.30888104194921E-15  -1.67717475994513E+00  -1.67717475994513E+00   0.00000000000000E+00   0.00000000000000E+00
     -2.29531170338052E-17  -8.85901982141119E-16  -9.08855099174924E-16  -1.94056107194894E-15
      4.35434951989026E-02
      8.00000000000000E-01   8.00000000000000E-01   0.00000000000000E+00   0.00000000000000E+00   1.05373868237043E-15
      3.48398822811379E-19   1.05408708119324E-15   7.25301462099010E-15   0.00000000000000E+00   0.00000000000000E+00
      0.00000000000000E+00   0.00000000000000E+00  -1.03632259819636E-18  -6.21049845999977E-17  -6.31413071981941E-17
     -5.30779663570681E-15  -2.17717475994513E+00  -2.17717475994513E+00   0.00000000000000E+00   0.00000000000000E+00
     -2.29532712884285E-17  -9.67992502706618E-16  -9.90945773995047E-16  -1.94521798528329E-15
      5.35434951989026E-02
      8.00000000000000E-01   8.00000000000000E-01   0.00000000000000E+00   0.00000000000000E+00   1.12247235801459E-15
      3.74197816757925E-19   1.12284655583135E-15   7.25534162778928E-15   0.00000000000000E+00   0.00000000000000E+00
      0.00000000000000E+00   0.00000000000000E+00  -1.03632179516379E-18  -6.25219071480248E-17  -6.35582289431886E-17
     -5.30535160770291E-15  -2.67717475994513E+00  -2.67717475994513E+00   0.00000000000000E+00   0.00000000000000E+00
     -2.29534296583242E-17  -1.03633489722983E-15  -1.05928832688816E-15  -1.94999002008637E-15
      6.35434951989026E-02
      8.00000000000000E-01   8.00000000000000E-01   0.00000000000000E+00   0.00000000000000E+00   1.17755259510682E-15
     -1.40370847342573E-18   1.17614888663339E-15   7.25575498635056E-15   0.00000000000000E+00   0.00000000000000E+00
      0.00000000000000E+00   0.00000000000000E+00  -1.03632033178378E-18  -6.34994863214571E-17  -6.45358066532409E-17
     -5.30083402339950E-15  -3.17717475994513E+00  -3.17717475994513E+00   0.00000000000000E+00   0.00000000000000E+00
     -2.29535935875690E-17  -1.08865948639258E-15  -1.11161307998015E-15  -1.95492096295107E-15
      7.35434951989026E-02
      8.00000000000000E-01   8.00000000000000E-01   0.00000000000000E+00   0.00000000000000E+00   1.22111289873112E-15
      6.17732921154516E-18   1.22729022794266E-15   7.25398088337392E-15   0.00000000000000E+00   0.00000000000000E+00
      0.00000000000000E+00   0.00000000000000E+00  -1.03631815498366E-18  -6.52747502295929E-17  -6.63110683845766E-17
     -5.29393803799595E-15  -3.67717475994513E+00  -3.67717475994513E+00   0.00000000000000E+00   0.00000000000000E+00
     -2.29537641439210E-17  -1.13802539541417E-15  -1.16097915955809E-15  -1.96004284537795E-15
      8.35434951989026E-02
      8.00000000000000E-01   8.00000000000000E-01   0.00000000000000E+00   0.00000000000000E+00   1.25525875653493E-15
      1.49744045020633E-18   1.25675619698514E-15   7.25033907156418E-15   0.00000000000000E+00   0.00000000000000E+00
      0.00000000000000E+00   0.00000000000000E+00  -1.03631541756477E-18  -6.79864110878494E-17  -6.90227265054142E-17
     -5.28495932569545E-15  -4.17717475994513E+00  -4.17717475994513E+00   0.00000000000000E+00   0.00000000000000E+00
     -2.29539421397527E-17  -1.16477952833997E-15  -1.18773347047972E-15  -1.96537974586872E-15
      9.35434951989026E-02
      8.00000000000000E-01   8.00000000000000E-01   0.00000000000000E+00   0.00000000000000E+00   1.28180574606330E-15
     -4.66721055434118E-18   1.27713853550896E-15   7.24536064172710E-15   0.00000000000000E+00   0.00000000000000E+00
      0.00000000000000E+00   0.00000000000000E+00  -1.03631231882757E-18  -7.13394479028453E-17  -7.23757602216729E-17
     -5.27441267619072E-15  -4.67717475994513E+00  -4.67717475994513E+00   0.00000000000000E+00   0.00000000000000E+00
     -2.29541281345538E-17  -1.18180864715274E-15  -1.20476277528729E-15  -1.97094796553638E-15
      1.03543495198903E-01
      8.00000000000000E-01   8.00000000000000E-01   0.00000000000000E+00   0.00000000000000E+00   1.30151851036111E-15
      7.25677320886082E-19   1.30224418768200E-15   7.23944034785276E-15   0.00000000000000E+00   0.00000000000000E+00
      0.00000000000000E+00   0.00000000000000E+00  -1.03630899100380E-18  -7.42737844847443E-17  -7.53100934757480E-17
     -5.26268462731618E-15  -5.17717475994513E+00  -5.17717475994513E+00   0.00000000000000E+00   0.00000000000000E+00
     -2.29543224220447E-17  -1.20397977178420E-15  -1.22693409420625E-15  -1.97675572053657E-15
      1.13543495198903E-01
      8.00000000000000E-01   8.00000000000000E-01   0.00000000000000E+00   0.00000000000000E+00   1.31538986634555E-15
     -4.53524233745377E-18   1.31085462400809E-15   7.23280722149942E-15   0.00000000000000E+00   0.00000000000000E+00
      0.00000000000000E+00   0.00000000000000E+00  -1.03630550416291E-18  -7.60313646059126E-17  -7.70676701100755E-17
     -5.25000144666059E-15  -5.67717475994513E+00  -5.67717475994513E+00   0.00000000000000E+00   0.00000000000000E+00
     -2.29545251161394E-17  -1.21083242878188E-15  -1.23378695389802E-15  -1.98280577483881E-15
      1.23543495198903E-01
      8.00000000000000E-01   8.00000000000000E-01   0.00000000000000E+00   0.00000000000000E+00   1.32526895458796E-15
     -6.54055864827761E-19   1.32461489872314E-15   7.22558930202914E-15   0.00000000000000E+00   0.00000000000000E+00
      0.00000000000000E+00   0.00000000000000E+00  -1.03630189512637E-18  -7.67748538549438E-17  -7.78111557500702E-17
     -5.23649128454659E-15  -6.17717475994513E+00  -6.17717475994513E+00   0.00000000000000E+00   0.00000000000000E+00
     -2.29547362359941E-17  -1.22384900673707E-15  -1.24680374297307E-15  -1.98909801748253E-15
      1.33543495198903E-01
      8.00000000000000E-01   8.00000000000000E-01   0.00000000000000E+00   0.00000000000000E+00   1.33275606690039E-15
     -1.17351404621201E-17   1.32102092643827E-15   7.21786048855145E-15   0.00000000000000E+00   0.00000000000000E+00
      0.00000000000000E+00   0.00000000000000E+00  -1.03629818487479E-18  -7.69024450867366E-17  -7.79387432716114E-17
     -5.22222956757511E-15  -6.67717475994513E+00  -6.67717475994513E+00   0.00000000000000E+00   0.00000000000000E+00
     -2.29549557542605E-17  -1.22012722741240E-15  -1.24308218316666E-15  -1.99563092097634E-15
      1.43543495198903E-01
      8.00000000000000E-01   8.00000000000000E-01   0.00000000000000E+00   0.00000000000000E+00   1.33877546129145E-15
      5.82927992485788E-18   1.34460474121630E-15   7.20966451811378E-15   0.00000000000000E+00   0.00000000000000E+00
      0.00000000000000E+00   0.00000000000000E+00  -1.03629438656741E-18  -7.66905487861122E-17  -7.77268431726796E-17
     -5.20726226278724E-15  -7.17717475994513E+00  -7.17717475994513E+00   0.00000000000000E+00   0.00000000000000E+00
     -2.29551836207214E-17  -1.24392271442290E-15  -1.26687789804362E-15  -2.00240225532652E-15
      1.53543495198903E-01
      8.00000000000000E-01   8.00000000000000E-01   0.00000000000000E+00   0.00000000000000E+00   1.34379610286444E-15
      5.91592822361196E-18   1.34971203108805E-15   7.20102635827992E-15   0.00000000000000E+00   0.00000000000000E+00
      0.00000000000000E+00   0.00000000000000E+00  -1.03629050911578E-18  -7.62577269212365E-17  -7.72940174303523E-17
     -5.19161692869877E-15  -7.67717475994513E+00  -7.67717475994513E+00   0.00000000000000E+00   0.00000000000000E+00
     -2.29554197735944E-17  -1.24946259388411E-15  -1.27241801365770E-15  -2.00940942958113E-15
      1.63543495198903E-01
      8.00000000000000E-01   8.00000000000000E-01   0.00000000000000E+00   0.00000000000000E+00   1.34806362365278E-15
     -1.08661470430606E-17   1.33719747660972E-15   7.19195730939670E-15   0.00000000000000E+00   0.00000000000000E+00
      0.00000000000000E+00   0.00000000000000E+00  -1.03628655883337E-18  -7.56622265494065E-17  -7.66985131082399E-17
     -5.17530765987073E-15  -8.17717475994513E+00  -8.17717475994513E+00   0.00000000000000E+00   0.00000000000000E+00
     -2.29556641447259E-17  -1.23754329935675E-15  -1.26049896350148E-15  -2.01664964952596E-15
      1.73543495198903E-01
      8.00000000000000E-01   8.00000000000000E-01   0.00000000000000E+00   0.00000000000000E+00   1.35173438116196E-15
      2.00233602891422E-17   1.37175774145110E-15   7.18245659472143E-15   0.00000000000000E+00   0.00000000000000E+00
      0.00000000000000E+00   0.00000000000000E+00  -1.03628254021226E-18  -7.49484370486264E-17  -7.59847195888386E-17
     -5.15833662193308E-15  -8.67717475994513E+00  -8.67717475994513E+00   0.00000000000000E+00   0.00000000000000E+00
     -2.29559166613645E-17  -1.27281710520090E-15  -1.29577302186226E-15  -2.02411997278838E-15
      1.83543495198903E-01
      8.00000000000000E-01   8.00000000000000E-01   0.00000000000000E+00   0.00000000000000E+00   1.35493388017326E-15
      7.22867574604881E-18   1.36216255591930E-15   7.17251039067949E-15   0.00000000000000E+00   0.00000000000000E+00
      0.00000000000000E+00   0.00000000000000E+00  -1.03627845624312E-18  -7.40880719841554E-17  -7.51243504403985E-17
     -5.14069310030932E-15  -9.17717475994513E+00  -9.17717475994513E+00   0.00000000000000E+00   0.00000000000000E+00
     -2.29561772454649E-17  -1.26408202823344E-15  -1.28703820547890E-15  -2.03181729037013E-15
      1.93543495198903E-01
      8.00000000000000E-01   8.00000000000000E-01   0.00000000000000E+00   0.00000000000000E+00   1.35775905666244E-15
      4.92280012646168E-18   1.36268185678890E-15   7.16208838320293E-15   0.00000000000000E+00   0.00000000000000E+00
      0.00000000000000E+00   0.00000000000000E+00  -1.03627430844173E-18  -7.30581269331989E-17  -7.40944012416406E-17
     -5.12235014295403E-15  -9.67717475994513E+00  -9.67717475994513E+00   0.00000000000000E+00   0.00000000000000E+00
     -2.29564458106751E-17  -1.26563100973658E-15  -1.28858745554726E-15  -2.03973824024890E-15
      2.03543495198903E-01
      8.00000000000000E-01   8.00000000000000E-01   0.00000000000000E+00   0.00000000000000E+00   1.36029468554758E-15
      8.92519421262827E-18   1.36921987976021E-15   7.15113788083406E-15   0.00000000000000E+00   0.00000000000000E+00
      0.00000000000000E+00   0.00000000000000E+00  -1.03627009667724E-18  -7.16242169017648E-17  -7.26604869984421E-17
     -5.10325882154004E-15  -1.01771747599451E+01  -1.01771747599451E+01   0.00000000000000E+00   0.00000000000000E+00
     -2.29567222572084E-17  -1.27360267050456E-15  -1.29655939276177E-15  -2.04787905929399E-15
      2.13543495198903E-01
      8.00000000000000E-01   8.00000000000000E-01   0.00000000000000E+00   0.00000000000000E+00   1.36263695166563E-15
     -2.58984375042255E-18   1.36004710791521E-15   7.13957755127985E-15   0.00000000000000E+00   0.00000000000000E+00
      0.00000000000000E+00   0.00000000000000E+00  -1.03626581902523E-18  -6.89486524544906E-17  -6.99849182735158E-17
     -5.08334211465052E-15  -1.06771747599451E+01  -1.06771747599451E+01   0.00000000000000E+00   0.00000000000000E+00
     -2.29570064667073E-17  -1.26710518317499E-15  -1.29006218964170E-15  -2.05623543662934E-15
      2.23543495198903E-01
      8.00000000000000E-01   8.00000000000000E-01   0.00000000000000E+00   0.00000000000000E+00   1.36486281369505E-15
      6.43912824016349E-19   1.36550672651907E-15   7.12730151495676E-15   0.00000000000000E+00   0.00000000000000E+00
      0.00000000000000E+00   0.00000000000000E+00  -1.03626147244794E-18  -6.19728926343483E-17  -6.30091541067963E-17
     -5.06249885649134E-15  -1.11771747599451E+01  -1.11771747599451E+01   0.00000000000000E+00   0.00000000000000E+00
     -2.29572983070002E-17  -1.27954027410527E-15  -1.30249757241227E-15  -2.06480265846541E-15
      2.33543495198903E-01
      8.00000000000000E-01   8.00000000000000E-01   0.00000000000000E+00   0.00000000000000E+00   1.36702413987875E-15
      2.13911180013492E-18   1.36916325167889E-15   7.11422401717316E-15   0.00000000000000E+00   0.00000000000000E+00
      0.00000000000000E+00   0.00000000000000E+00  -1.03625705625807E-18  -3.95956066799621E-17  -4.06318637362201E-17
     -5.04064719695771E-15  -1.16771747599451E+01  -1.16771747599451E+01   0.00000000000000E+00   0.00000000000000E+00
     -2.29575976733445E-17  -1.30557379026932E-15  -1.32853138794267E-15  -2.07357682021545E-15
      2.43543495198903E-01
      8.00000000000000E-01   8.00000000000000E-01   0.00000000000000E+00   0.00000000000000E+00   1.36913633534820E-15
      1.07410186428790E-17   1.37987735399108E-15   7.10038705906348E-15   0.00000000000000E+00   0.00000000000000E+00
      0.00000000000000E+00   0.00000000000000E+00  -1.03625257921648E-18   3.77730103744179E-17   3.67367577952014E-17
     -5.01782945190604E-15  -1.21771747599451E+01  -1.21771747599451E+01   0.00000000000000E+00   0.00000000000000E+00
     -2.29579045837085E-17  -1.39365620720257E-15  -1.41661411178628E-15  -2.08255760715743E-15
      2.53543495198903E-01
      8.00000000000000E-01   8.00000000000000E-01   0.00000000000000E+00   0.00000000000000E+00   1.37116538460129E-15
      9.68334672440109E-18   1.38084873132569E-15   7.08602607413159E-15   0.00000000000000E+00   0.00000000000000E+00
      0.00000000000000E+00   0.00000000000000E+00  -1.03624806241459E-18   3.07267150105653E-16   3.06230902043238E-16
     -4.99427623904510E-15  -1.26771747599451E+01  -1.26771747599451E+01   0.00000000000000E+00   0.00000000000000E+00
     -2.29582192325264E-17  -1.66412141413640E-15  -1.68707963336893E-15  -2.09174983508650E-15
      2.63543495198903E-01
      8.00000000000000E-01   8.00000000000000E-01   0.00000000000000E+00   0.00000000000000E+00   1.37304887747323E-15
     -1.08676421910864E-17   1.36218123528214E-15   7.07144932671371E-15   0.00000000000000E+00   0.00000000000000E+00
      0.00000000000000E+00   0.00000000000000E+00  -1.03624352957433E-18   1.22688651611669E-15   1.22585027258711E-15
     -4.97028916907204E-15  -1.31771747599451E+01  -1.31771747599451E+01   0.00000000000000E+00   0.00000000000000E+00
     -2.29585418791628E-17  -2.56507296599009E-15  -2.58803150786926E-15  -2.10116015764167E-15
      2.73543495198903E-01
      8.00000000000000E-01   8.00000000000000E-01   0.00000000000000E+00   0.00000000000000E+00   1.37472307415311E-15
      1.11986627160932E-17   1.38592173686920E-15   7.05688221339330E-15   0.00000000000000E+00   0.00000000000000E+00
      0.00000000000000E+00   0.00000000000000E+00  -1.03623899682368E-18   4.27043317570521E-15   4.26939693670839E-15
     -4.94608918182515E-15  -1.36771747599451E+01  -1.36771747599451E+01   0.00000000000000E+00   0.00000000000000E+00
     -2.29588727097996E-17  -5.63235980086778E-15  -5.65531867357758E-15  -2.11079303156814E-15
      2.83543495198903E-01
      8.00000000000000E-01   8.00000000000000E-01   0.00000000000000E+00   0.00000000000000E+00   1.37612486531005E-15
     -5.18029159391674E-18   1.37094457371613E-15   7.04244407438538E-15   0.00000000000000E+00   0.00000000000000E+00
      0.00000000000000E+00   0.00000000000000E+00  -1.03623446216066E-18   1.40048050196663E-14   1.40037687852041E-14
     -4.92179390710079E-15  -1.41771747599451E+01  -1.41771747599451E+01   0.00000000000000E+00   0.00000000000000E+00
     -2.29592118179278E-17  -1.53517541471023E-14  -1.53747133589202E-14  -2.12065016728459E-15
      2.93543495198903E-01
      8.00000000000000E-01   8.00000000000000E-01   0.00000000000000E+00   0.00000000000000E+00   1.37718442924105E-15
      3.41354002669965E-18   1.38059796926775E-15   7.02819065094539E-15   0.00000000000000E+00   0.00000000000000E+00
      0.00000000000000E+00   0.00000000000000E+00  -1.03622991921314E-18   4.40485099481340E-14   4.40474737182148E-14
     -4.89745901413320E-15  -1.46771747599451E+01  -1.46771747599451E+01   0.00000000000000E+00   0.00000000000000E+00
     -2.29595592417887E-17  -4.54051121282406E-14  -4.54280716874824E-14  -2.13073163681218E-15
      3.03543495198903E-01
      8.00000000000000E-01   8.00000000000000E-01   0.00000000000000E+00   0.00000000000000E+00   1.37782078784145E-15
     -1.98610065398915E-17   1.35795978130156E-15   7.01414896009273E-15   0.00000000000000E+00  -9.18447372075268E-17
      0.00000000000000E+00   0.00000000000000E+00  -1.03622542164017E-18   1.33448007692963E-13   1.33446971467541E-13
     -4.87311219447332E-15  -1.51771747599451E+01  -1.51771747599451E+01   0.00000000000000E+00   0.00000000000000E+00
     -2.29599149947119E-17  -1.34781971333848E-13  -1.34804931248843E-13  -2.14103676561939E-15
      3.13543495198903E-01
      8.00000000000000E-01   8.00000000000000E-01   0.00000000000000E+00   0.00000000000000E+00   1.37792419023406E-15
      7.44517306234370E-18   1.38536936329640E-15   7.00033510056442E-15   0.00000000000000E+00  -3.67378948830107E-16
      0.00000000000000E+00   0.00000000000000E+00  -1.03622090043249E-18   3.89733771941686E-13   3.89732735720786E-13
     -4.84877050649401E-15  -1.56771747599451E+01  -1.56771747599451E+01   0.00000000000000E+00   0.00000000000000E+00
     -2.29602790808706E-17  -3.91095144805000E-13  -3.91118105084081E-13  -2.15156459407040E-15
      3.23543495198903E-01
      8.00000000000000E-01   8.00000000000000E-01   0.00000000000000E+00   0.00000000000000E+00   1.37728370562480E-15
     -2.00684859551254E-17   1.35721521966967E-15   6.98676256434187E-15   0.00000000000000E+00  -1.10213684649032E-15
      0.00000000000000E+00   0.00000000000000E+00  -1.03621549381258E-18   1.09698943056538E-12   1.09698839434989E-12
     -4.82444843586104E-15  -1.61771747599451E+01  -1.61771747599451E+01   0.00000000000000E+00   0.00000000000000E+00
     -2.29606515039037E-17  -1.09832264891805E-12  -1.09834560956955E-12  -2.16231412848084E-15
      3.33543495198903E-01
      8.00000000000000E-01   8.00000000000000E-01   0.00000000000000E+00   0.00000000000000E+00   1.37540604726847E-15
     -1.29685344728932E-17   1.36243751279558E-15   6.97344671554828E-15   0.00000000000000E+00  -2.93903159064086E-15
      0.00000000000000E+00   0.00000000000000E+00  -1.03621064808982E-18   2.97409725770800E-12   2.97409622149735E-12
     -4.80016214575558E-15  -1.66771747599451E+01  -1.66771747599451E+01   0.00000000000000E+00   0.00000000000000E+00
     -2.29610322748953E-17  -2.97543569797787E-12  -2.97545865901014E-12  -2.17328456979273E-15
      3.43543495198903E-01
      8.00000000000000E-01   8.00000000000000E-01   0.00000000000000E+00   0.00000000000000E+00   1.37115660360928E-15
     -4.08841444694615E-18   1.36706818916234E-15   6.96040831064254E-15   0.00000000000000E+00  -7.71495792543225E-15
      0.00000000000000E+00   0.00000000000000E+00  -1.03620413897574E-18   7.76001544176002E-12   7.76001440555589E-12
     -4.77593262883304E-15  -1.71771747599451E+01  -1.71771747599451E+01   0.00000000000000E+00   0.00000000000000E+00
     -2.29614214253259E-17  -7.76135851232369E-12  -7.76138147374511E-12  -2.18447568180948E-15
      3.53543495198903E-01
      8.00000000000000E-01   8.00000000000000E-01   0.00000000000000E+00   0.00000000000000E+00   1.36213372338655E-15
     -5.92448294577121E-18   1.35620924044078E-15   6.94767766188808E-15   0.00000000000000E+00  -1.94710842879957E-14
      0.00000000000000E+00   0.00000000000000E+00  -1.03619251707402E-18   1.94645925645096E-11   1.94645915283171E-11
     -4.75178915102081E-15  -1.76771747599451E+01  -1.76771747599451E+01   0.00000000000000E+00   0.00000000000000E+00
     -2.29618190325514E-17  -1.94659247757386E-11  -1.94659477375576E-11  -2.19588851086727E-15
      3.63543495198903E-01
      8.00000000000000E-01   8.00000000000000E-01   0.00000000000000E+00   0.00000000000000E+00   1.34380777970955E-15
      1.92675734286425E-17   1.36307535313819E-15   6.93530067424364E-15   0.00000000000000E+00  -4.68408159758386E-14
      0.00000000000000E+00   0.00000000000000E+00  -1.03616889014140E-18   4.68663378249127E-11   4.68663367887438E-11
     -4.72777389043756E-15  -1.81771747599451E+01  -1.81771747599451E+01   0.00000000000000E+00   0.00000000000000E+00
     -2.29622252694547E-17  -4.68676769018721E-11  -4.68676998640974E-11  -2.20752678380604E-15
      3.73543495198903E-01
      8.00000000000000E-01   8.00000000000000E-01   0.00000000000000E+00   0.00000000000000E+00   1.30908337274365E-15
      5.82401926691679E-18   1.31490739201057E-15   6.92334783535211E-15   0.00000000000000E+00  -1.08101255693259E-13
      0.00000000000000E+00   0.00000000000000E+00  -1.03611934845104E-18   1.08101956592430E-10   1.08101955556310E-10
     -4.70394839201825E-15  -1.86771747599451E+01  -1.86771747599450E+01   0.00000000000000E+00   0.00000000000000E+00
     -2.29626404948212E-17  -1.08103247501062E-10  -1.08103270463703E-10  -2.21939944333384E-15
      3.83543495198903E-01
      8.00000000000000E-01   8.00000000000000E-01   0.00000000000000E+00   0.00000000000000E+00   1.25018669063824E-15
     -5.42197651268485E-18   1.24476471412556E-15   6.91192657737476E-15   0.00000000000000E+00  -2.38245248316324E-13
      0.00000000000000E+00   0.00000000000000E+00  -1.03602343649877E-18   2.38218431988937E-10   2.38218430952914E-10
     -4.68040179608149E-15  -1.91771747599451E+01  -1.91771747599449E+01   0.00000000000000E+00   0.00000000000000E+00
     -2.29630654013380E-17  -2.38219652754561E-10  -2.38219675717626E-10  -2.23152478129330E-15
      3.93543495198903E-01
      8.00000000000000E-01   8.00000000000000E-01   0.00000000000000E+00   0.00000000000000E+00   1.16437835128915E-15
      7.65923382053874E-18   1.17203758510969E-15   6.90119527093077E-15   0.00000000000000E+00  -4.99727215146153E-13
      0.00000000000000E+00   0.00000000000000E+00  -1.03586316520035E-18   4.99742579281907E-10   4.99742578246044E-10
     -4.65725910278433E-15  -1.96771747599451E+01  -1.96771747599446E+01   0.00000000000000E+00   0.00000000000000E+00
     -2.29635012219655E-17  -4.99743727320124E-10  -4.99743750283625E-10  -2.24393616814645E-15
      4.03543495198903E-01
      8.00000000000000E-01   8.00000000000000E-01   0.00000000000000E+00   0.00000000000000E+00   1.05905838523119E-15
     -1.13175272998797E-17   1.04774085793131E-15   6.89137276251533E-15   0.00000000000000E+00  -9.93851901322647E-13
      0.00000000000000E+00   0.00000000000000E+00  -1.03563695590462E-18   9.93868656433042E-10   9.93868655397405E-10
     -4.63468474132580E-15  -2.01771747599451E+01  -2.01771747599442E+01   0.00000000000000E+00   0.00000000000000E+00
     -2.29639499475182E-17  -9.93869680174305E-10  -9.93869703138255E-10  -2.25668802118954E-15
      4.13543495198903E-01
      8.00000000000000E-01   8.00000000000000E-01   0.00000000000000E+00   0.00000000000000E+00   9.48269385935982E-16
      8.42831397162952E-18   9.56697699907611E-16   6.88273257998491E-15   0.00000000000000E+00  -1.86600952584532E-12
      0.00000000000000E+00   0.00000000000000E+00  -1.03535991361202E-18   1.86597735502968E-09   1.86597735399432E-09
     -4.61287402877377E-15  -2.06771747599451E+01  -2.06771747599433E+01   0.00000000000000E+00   0.00000000000000E+00
     -2.29644144327478E-17  -1.86597828772760E-09  -1.86597831069202E-09  -2.26985855121113E-15
      4.23543495198903E-01
      8.00000000000000E-01   8.00000000000000E-01   0.00000000000000E+00   0.00000000000000E+00   8.44072596411390E-16
     -3.46376389753717E-18   8.40608832513853E-16   6.87557209359863E-15   0.00000000000000E+00  -3.29722606575021E-12
      0.00000000000000E+00   0.00000000000000E+00  -1.03504802440885E-18   3.29719164265089E-09   3.29719164161584E-09
     -4.59202727249499E-15  -2.11771747599451E+01  -2.11771747599418E+01   0.00000000000000E+00   0.00000000000000E+00
     -2.29648982304241E-17  -3.29719245925981E-09  -3.29719248222471E-09  -2.28354482110363E-15
      4.33543495198903E-01
      8.00000000000000E-01   8.00000000000000E-01   0.00000000000000E+00   0.00000000000000E+00   7.52620555795621E-16
     -5.04960660770895E-18   7.47570949187912E-16   6.87016034007921E-15   0.00000000000000E+00  -5.47899779811501E-12
      0.00000000000000E+00   0.00000000000000E+00  -1.03470710823791E-18   5.47898985993268E-09   5.47898985889798E-09
     -4.57231167305466E-15  -2.16771747599451E+01  -2.16771747599397E+01   0.00000000000000E+00   0.00000000000000E+00
     -2.29654050978075E-17  -5.47899058350350E-09  -5.47899060646891E-09  -2.29784866702458E-15
      4.43543495198903E-01
      8.00000000000000E-01   8.00000000000000E-01   0.00000000000000E+00   0.00000000000000E+00   6.74935370281898E-16
     -2.58854828806344E-17   6.49049887401263E-16   6.86668666137387E-15   0.00000000000000E+00  -8.57985981571553E-12
      0.00000000000000E+00   0.00000000000000E+00  -1.03433284956023E-18   8.57987260732304E-09   8.57987260628871E-09
     -4.55382809578365E-15  -2.21771747599451E+01  -2.21771747599366E+01   0.00000000000000E+00   0.00000000000000E+00
     -2.29659383521783E-17  -8.57987323237246E-09  -8.57987325533840E-09  -2.31285856559021E-15
      4.53543495198903E-01
      8.00000000000000E-01   8.00000000000000E-01   0.00000000000000E+00   0.00000000000000E+00   6.09086630117163E-16
      1.80820356886631E-17   6.27168665805826E-16   6.86523534614161E-15   0.00000000000000E+00  -1.27201287242936E-11
      0.00000000000000E+00   0.00000000000000E+00  -1.03391522766333E-18   1.27201457965610E-08   1.27201457955271E-08
     -4.53659914519769E-15  -2.26771747599451E+01  -2.26771747599324E+01   0.00000000000000E+00   0.00000000000000E+00
     -2.29665003863627E-17  -1.27201463997290E-08  -1.27201464226955E-08  -2.32863620094393E-15
      4.63543495198903E-01
      8.00000000000000E-01   8.00000000000000E-01   0.00000000000000E+00   0.00000000000000E+00   5.52469803091699E-16
     -4.60714886947547E-18   5.47862654222223E-16   6.86579322852554E-15   0.00000000000000E+00  -1.79644632188434E-11