DF-ISE text

Info {
  version   = 1.0
  type      = xyplot
  datasets  = [
    "time"
    "Ntop OuterVoltage" "Ntop InnerVoltage" "Ntop QuasiFermiPotential" "Ntop DisplacementCurrent" "Ntop eCurrent"
    "Ntop hCurrent" "Ntop TotalCurrent" "Ntop Charge" "Ptop OuterVoltage" "Ptop InnerVoltage"
    "Ptop QuasiFermiPotential" "Ptop DisplacementCurrent" "Ptop eCurrent" "Ptop hCurrent" "Ptop TotalCurrent"
    "Ptop Charge" "Pbot OuterVoltage" "Pbot InnerVoltage" "Pbot QuasiFermiPotential" "Pbot DisplacementCurrent"
    "Pbot eCurrent" "Pbot hCurrent" "Pbot TotalCurrent" "Pbot Charge" ]
  functions = [
    Time
    OuterVoltage InnerVoltage QuasiFermiPotential DisplacementCurrent eCurrent
    hCurrent TotalCurrent Charge OuterVoltage InnerVoltage
    QuasiFermiPotential DisplacementCurrent eCurrent hCurrent TotalCurrent
    Charge OuterVoltage InnerVoltage QuasiFermiPotential DisplacementCurrent
    eCurrent hCurrent TotalCurrent Charge ]
}

Data {
      1.00000000000000E-03
      8.00000000000000E-01   8.00000000000000E-01   0.00000000000000E+00   0.00000000000000E+00   5.60123442928572E-16
      8.21108712882316E-19   5.60944551641454E-16   3.63064030134894E-15   0.00000000000000E+00   0.00000000000000E+00
      0.00000000000000E+00   0.00000000000000E+00  -1.03632184748791E-18  -6.67773424614278E-17  -6.78136643089157E-17
     -1.70505614305601E-15  -5.00000000000000E-02  -5.00000000000000E-02   0.00000000000000E+00   0.00000000000000E+00
     -2.29526236898278E-17  -4.70178263642711E-16  -4.93130887332539E-16  -1.92558415829294E-15
      2.91111111111111E-03
      8.00000000000000E-01   8.00000000000000E-01   0.00000000000000E+00   0.00000000000000E+00   5.91744716178911E-16
      8.01892383188052E-19   5.92546608562099E-16   3.63152141589948E-15   0.00000000000000E+00   0.00000000000000E+00
      0.00000000000000E+00   0.00000000000000E+00  -1.03632184684337E-18  -6.66447518833845E-17  -6.76810737302279E-17
     -1.70505391057186E-15  -1.45555555555556E-01  -1.45555555555555E-01   0.00000000000000E+00   0.00000000000000E+00
     -2.29526526211427E-17  -5.01912882210729E-16  -5.24865534831872E-16  -1.92646750532762E-15
      6.56345679012346E-03
      8.00000000000000E-01   8.00000000000000E-01   0.00000000000000E+00   0.00000000000000E+00   6.48230804435359E-16
     -6.23353265040812E-19   6.47607451170319E-16   3.63320060784452E-15   0.00000000000000E+00   0.00000000000000E+00
      0.00000000000000E+00   0.00000000000000E+00  -1.03632184484473E-18  -6.64119383919841E-17  -6.74482602368288E-17
     -1.70504698756541E-15  -3.28172839506173E-01  -3.28172839506173E-01   0.00000000000000E+00   0.00000000000000E+00
     -2.29527079225044E-17  -5.57206483010985E-16  -5.80159190933489E-16  -1.92815362027911E-15
      1.35434951989026E-02
      8.00000000000000E-01   8.00000000000000E-01   0.00000000000000E+00   0.00000000000000E+00   7.45445643202942E-16
      9.51501533067140E-19   7.46397144736009E-16   3.63638382554338E-15   0.00000000000000E+00   0.00000000000000E+00
      0.00000000000000E+00   0.00000000000000E+00  -1.03632183566229E-18  -6.60389253454747E-17  -6.70752471811370E-17
     -1.70501518466822E-15  -6.77174759945130E-01  -6.77174759945130E-01   0.00000000000000E+00   0.00000000000000E+00
     -2.29528136062711E-17  -6.56369083948600E-16  -6.79321897554871E-16  -1.93136864087516E-15
      2.35434951989026E-02
      8.00000000000000E-01   8.00000000000000E-01   0.00000000000000E+00   0.00000000000000E+00   8.67505954476942E-16
      2.15831087989675E-20   8.67527537585741E-16   3.64081610855711E-15   0.00000000000000E+00   0.00000000000000E+00
      0.00000000000000E+00   0.00000000000000E+00  -1.03632178967743E-18  -6.56523557033946E-17  -6.66886774930720E-17
     -1.70485598350076E-15  -1.17717475994513E+00  -1.17717475994513E+00   0.00000000000000E+00   0.00000000000000E+00
     -2.29529649643517E-17  -7.77885895128316E-16  -8.00838860092668E-16  -1.93596012505635E-15
      3.35434951989026E-02
      8.00000000000000E-01   8.00000000000000E-01   0.00000000000000E+00   0.00000000000000E+00   9.72988846001931E-16
      8.50966700587981E-19   9.73839812702519E-16   3.64485774001375E-15   0.00000000000000E+00   0.00000000000000E+00
      0.00000000000000E+00   0.00000000000000E+00  -1.03632163083066E-18  -6.54759163439748E-17  -6.65122379748054E-17
     -1.70430632040868E-15  -1.67717475994513E+00  -1.67717475994513E+00   0.00000000000000E+00   0.00000000000000E+00
     -2.29531167144135E-17  -8.84374458013300E-16  -9.07327574727714E-16  -1.94055141960507E-15
      4.35434951989026E-02
      8.00000000000000E-01   8.00000000000000E-01   0.00000000000000E+00   0.00000000000000E+00   1.05986219652298E-15
     -1.85859515617581E-18   1.05800360136680E-15   3.64794739923380E-15   0.00000000000000E+00   0.00000000000000E+00
      0.00000000000000E+00   0.00000000000000E+00  -1.03632118331202E-18  -6.56233920738998E-17  -6.66597132572119E-17
     -1.70275634964151E-15  -2.17717475994513E+00  -2.17717475994513E+00   0.00000000000000E+00   0.00000000000000E+00
     -2.29532703953414E-17  -9.68390617714246E-16  -9.91343888109588E-16  -1.94519104959229E-15
      5.35434951989026E-02
      8.00000000000000E-01   8.00000000000000E-01   0.00000000000000E+00   0.00000000000000E+00   1.13165430787693E-15
      9.21409145543733E-19   1.13257571702247E-15   3.64910675558058E-15   0.00000000000000E+00   0.00000000000000E+00
      0.00000000000000E+00   0.00000000000000E+00  -1.03632015659671E-18  -6.63237765339427E-17  -6.73600966905394E-17
     -1.69917861350285E-15  -2.67717475994513E+00  -2.67717475994513E+00   0.00000000000000E+00   0.00000000000000E+00
     -2.29534276029688E-17  -1.04226219272897E-15  -1.06521562033193E-15  -1.94992814207774E-15
      6.35434951989026E-02
      8.00000000000000E-01   8.00000000000000E-01   0.00000000000000E+00   0.00000000000000E+00   1.19095862286102E-15
     -7.59684602320348E-19   1.19019893825870E-15   3.64732841997613E-15   0.00000000000000E+00   0.00000000000000E+00
      0.00000000000000E+00   0.00000000000000E+00  -1.03631828367362E-18  -6.79432235317972E-17  -6.89795418154708E-17
     -1.69252614224184E-15  -3.17717475994513E+00  -3.17717475994513E+00   0.00000000000000E+00   0.00000000000000E+00
     -2.29535896386823E-17  -1.09826580680455E-15  -1.12121939644323E-15  -1.95480227773428E-15
      7.35434951989026E-02
      8.00000000000000E-01   8.00000000000000E-01   0.00000000000000E+00   0.00000000000000E+00   1.23841598502507E-15
      4.77478588772682E-18   1.24319077091279E-15   3.64247667436653E-15   0.00000000000000E+00   0.00000000000000E+00
      0.00000000000000E+00   0.00000000000000E+00  -1.03631559124433E-18  -7.08586190570039E-17  -7.18949346482483E-17
     -1.68262668905687E-15  -3.67717475994513E+00  -3.67717475994513E+00   0.00000000000000E+00   0.00000000000000E+00
     -2.29537577168810E-17  -1.14834207854766E-15  -1.17129583626454E-15  -1.95984998530967E-15
      8.35434951989026E-02
      8.00000000000000E-01   8.00000000000000E-01   0.00000000000000E+00   0.00000000000000E+00   1.27509867837935E-15
     -2.96557362492146E-18   1.27213310475443E-15   3.63534964421682E-15   0.00000000000000E+00   0.00000000000000E+00
      0.00000000000000E+00   0.00000000000000E+00  -1.03631236200991E-18  -7.49940056669673E-17  -7.60303180289772E-17
     -1.67024551276475E-15  -4.17717475994513E+00  -4.17717475994513E+00   0.00000000000000E+00   0.00000000000000E+00
     -2.29539329408091E-17  -1.17314885378464E-15  -1.19610278672545E-15  -1.96510413145207E-15
      9.35434951989026E-02
      8.00000000000000E-01   8.00000000000000E-01   0.00000000000000E+00   0.00000000000000E+00   1.30182135296716E-15
     -6.43627495155820E-18   1.29538507801560E-15   3.62676313792905E-15   0.00000000000000E+00   0.00000000000000E+00
      0.00000000000000E+00   0.00000000000000E+00  -1.03630883689187E-18  -7.91187772710383E-17  -8.01550861079302E-17
     -1.65617792252136E-15  -4.67717475994513E+00  -4.67717475994513E+00   0.00000000000000E+00   0.00000000000000E+00
     -2.29541160091417E-17  -1.19227587589854E-15  -1.21522999190768E-15  -1.97058521540770E-15
      1.03543495198903E-01
      8.00000000000000E-01   8.00000000000000E-01   0.00000000000000E+00   0.00000000000000E+00   1.31958868677445E-15
     -3.42066317395834E-18   1.31616802360049E-15   3.61718445512202E-15   0.00000000000000E+00   0.00000000000000E+00
      0.00000000000000E+00   0.00000000000000E+00  -1.03630513656055E-18  -8.16675976981920E-17  -8.27039028347526E-17
     -1.64088255215527E-15  -5.17717475994513E+00  -5.17717475994513E+00   0.00000000000000E+00   0.00000000000000E+00
     -2.29543072300651E-17  -1.21050981353567E-15  -1.23346412076574E-15  -1.97630190296675E-15
      1.13543495198903E-01
      8.00000000000000E-01   8.00000000000000E-01   0.00000000000000E+00   0.00000000000000E+00   1.33107292284509E-15
     -7.50030193381916E-18   1.32357262091128E-15   3.60684048136769E-15   0.00000000000000E+00   0.00000000000000E+00
      0.00000000000000E+00   0.00000000000000E+00  -1.03630131423289E-18  -8.25851839602642E-17  -8.36214852744970E-17
     -1.62458406434372E-15  -5.67717475994513E+00  -5.67717475994513E+00   0.00000000000000E+00   0.00000000000000E+00
     -2.29545066987709E-17  -1.21699662893801E-15  -1.23995113563678E-15  -1.98225641702397E-15
      1.23543495198903E-01
      8.00000000000000E-01   8.00000000000000E-01   0.00000000000000E+00   0.00000000000000E+00   1.33900937014847E-15
      4.31830529385086E-18   1.34332767544232E-15   3.59583249544847E-15   0.00000000000000E+00   0.00000000000000E+00
      0.00000000000000E+00   0.00000000000000E+00  -1.03629739433649E-18  -8.25573443324535E-17  -8.35936417267900E-17
     -1.60738459041577E-15  -6.17717475994513E+00  -6.17717475994513E+00   0.00000000000000E+00   0.00000000000000E+00
     -2.29547144088066E-17  -1.23677931930672E-15  -1.25973403371553E-15  -1.98844790503269E-15
      1.33543495198903E-01
      8.00000000000000E-01   8.00000000000000E-01   0.00000000000000E+00   0.00000000000000E+00   1.34501433960502E-15
     -1.05434431512801E-18   1.34395999528989E-15   3.58418840346692E-15   0.00000000000000E+00   0.00000000000000E+00
      0.00000000000000E+00   0.00000000000000E+00  -1.03629338840605E-18  -8.20489713403695E-17  -8.30852647287755E-17
     -1.58931454858838E-15  -6.67717475994513E+00  -6.67717475994513E+00   0.00000000000000E+00   0.00000000000000E+00
     -2.29549302988517E-17  -1.23791980026227E-15  -1.26087473056112E-15  -1.99487385487854E-15
      1.43543495198903E-01
      8.00000000000000E-01   8.00000000000000E-01   0.00000000000000E+00   0.00000000000000E+00   1.34988764811387E-15
     -9.80624679500506E-18   1.34008140131887E-15   3.57187945569510E-15   0.00000000000000E+00   0.00000000000000E+00
      0.00000000000000E+00   0.00000000000000E+00  -1.03628930086851E-18  -8.12793544135615E-17  -8.23156437144300E-17
     -1.57034888495720E-15  -7.17717475994513E+00  -7.17717475994513E+00   0.00000000000000E+00   0.00000000000000E+00
     -2.29551542682846E-17  -1.23481060333615E-15  -1.25776575760444E-15  -2.00153057073790E-15
      1.53543495198903E-01
      8.00000000000000E-01   8.00000000000000E-01   0.00000000000000E+00   0.00000000000000E+00   1.35402623926934E-15
     -3.41032050156257E-18   1.35061591876778E-15   3.55882235976234E-15   0.00000000000000E+00   0.00000000000000E+00
      0.00000000000000E+00   0.00000000000000E+00  -1.03628513123226E-18  -8.03457702600961E-17  -8.13820553913283E-17
     -1.55040907249053E-15  -7.67717475994513E+00  -7.67717475994513E+00   0.00000000000000E+00   0.00000000000000E+00
     -2.29553861806962E-17  -1.24627847719575E-15  -1.26923386337645E-15  -2.00841328727181E-15
      1.63543495198903E-01
      8.00000000000000E-01   8.00000000000000E-01   0.00000000000000E+00   0.00000000000000E+00   1.35764801686637E-15
     -9.97305428247108E-18   1.34767496258390E-15   3.54489101614008E-15   0.00000000000000E+00   0.00000000000000E+00
      0.00000000000000E+00   0.00000000000000E+00  -1.03628087622314E-18  -7.92981172753576E-17  -8.03343981515807E-17
     -1.52937449458562E-15  -8.17717475994513E+00  -8.17717475994513E+00   0.00000000000000E+00   0.00000000000000E+00
     -2.29556258754642E-17  -1.24438493855685E-15  -1.26734056443231E-15  -2.01551652155446E-15
      1.73543495198903E-01
      8.00000000000000E-01   8.00000000000000E-01   0.00000000000000E+00   0.00000000000000E+00   1.36086737613021E-15
      1.12813671966908E-17   1.37214874332690E-15   3.52999040790642E-15   0.00000000000000E+00   0.00000000000000E+00
      0.00000000000000E+00   0.00000000000000E+00  -1.03627653594369E-18  -7.81365888901499E-17  -7.91728654260936E-17
     -1.50715452493560E-15  -8.67717475994513E+00  -8.67717475994513E+00   0.00000000000000E+00   0.00000000000000E+00
     -2.29558732287314E-17  -1.27002000467208E-15  -1.29297587790081E-15  -2.02283588297083E-15
      1.83543495198903E-01
      8.00000000000000E-01   8.00000000000000E-01   0.00000000000000E+00   0.00000000000000E+00   1.36374612137206E-15
     -3.62069318682813E-18   1.36012542818523E-15   3.51421739389682E-15   0.00000000000000E+00   0.00000000000000E+00
      0.00000000000000E+00   0.00000000000000E+00  -1.03627212478364E-18  -7.67737860442873E-17  -7.78100581690710E-17
     -1.48384557081041E-15  -9.17717475994513E+00  -9.17717475994513E+00   0.00000000000000E+00   0.00000000000000E+00
     -2.29561282806488E-17  -1.25935924173551E-15  -1.28231537001616E-15  -2.03037182308641E-15
      1.93543495198903E-01
      8.00000000000000E-01   8.00000000000000E-01   0.00000000000000E+00   0.00000000000000E+00   1.36628458970894E-15
     -4.13529629058804E-18   1.36214929341836E-15   3.49790723307250E-15   0.00000000000000E+00   0.00000000000000E+00
      0.00000000000000E+00   0.00000000000000E+00  -1.03626767218840E-18  -7.47738448934327E-17  -7.58101125656211E-17
     -1.45977666513941E-15  -9.67717475994513E+00  -9.67717475994513E+00   0.00000000000000E+00   0.00000000000000E+00
     -2.29563912681871E-17  -1.26338278958455E-15  -1.28633918085273E-15  -2.03813056793310E-15
      2.03543495198903E-01
      8.00000000000000E-01   8.00000000000000E-01   0.00000000000000E+00   0.00000000000000E+00   1.36845575662137E-15
      1.17150577491340E-17   1.38017081437051E-15   3.48141814912164E-15   0.00000000000000E+00   0.00000000000000E+00
      0.00000000000000E+00   0.00000000000000E+00  -1.03626320593135E-18  -7.05060085124297E-17  -7.15422717183611E-17
     -1.43529916332575E-15  -1.01771747599451E+01  -1.01771747599451E+01   0.00000000000000E+00   0.00000000000000E+00
     -2.29566624522697E-17  -1.28567188019988E-15  -1.30862854265215E-15  -2.04611898579590E-15
      2.13543495198903E-01
      8.00000000000000E-01   8.00000000000000E-01   0.00000000000000E+00   0.00000000000000E+00   1.37024614363921E-15
     -7.88492609415989E-18   1.36236121754505E-15   3.46496875179448E-15   0.00000000000000E+00   0.00000000000000E+00
      0.00000000000000E+00   0.00000000000000E+00  -1.03625874190489E-18  -5.80208047362375E-17  -5.90570634781424E-17
     -1.41062794430120E-15  -1.06771747599451E+01  -1.06771747599451E+01   0.00000000000000E+00   0.00000000000000E+00
     -2.29569419893562E-17  -1.28034721207755E-15  -1.30330415406691E-15  -2.05434080749327E-15
      2.23543495198903E-01
      8.00000000000000E-01   8.00000000000000E-01   0.00000000000000E+00   0.00000000000000E+00   1.37164798765781E-15
     -1.15348484670037E-18   1.37049450281111E-15   3.44865920761255E-15   0.00000000000000E+00   0.00000000000000E+00
      0.00000000000000E+00   0.00000000000000E+00  -1.03625427254029E-18  -1.60342417631447E-17  -1.70704960356850E-17
     -1.38586209716609E-15  -1.11771747599451E+01  -1.11771747599451E+01   0.00000000000000E+00   0.00000000000000E+00
     -2.29572299471602E-17  -1.33046677682827E-15  -1.35342400677543E-15  -2.06279711044646E-15
      2.33543495198903E-01
      8.00000000000000E-01   8.00000000000000E-01   0.00000000000000E+00   0.00000000000000E+00   1.37265909688018E-15
      9.39889567115124E-18   1.38205799255133E-15   3.43253109136542E-15   0.00000000000000E+00   0.00000000000000E+00
      0.00000000000000E+00   0.00000000000000E+00  -1.03624983309665E-18   1.29160686112572E-16   1.28124436279475E-16
     -1.36104342010238E-15  -1.16771747599451E+01  -1.16771747599451E+01   0.00000000000000E+00   0.00000000000000E+00
     -2.29575263501193E-17  -1.48722490248069E-15  -1.51018242883081E-15  -2.07148767126304E-15
      2.43543495198903E-01
      8.00000000000000E-01   8.00000000000000E-01   0.00000000000000E+00   0.00000000000000E+00   1.37330289213101E-15
      5.46729284730028E-18   1.37877018497832E-15   3.41660188947667E-15   0.00000000000000E+00   0.00000000000000E+00
      0.00000000000000E+00   0.00000000000000E+00  -1.03624540419146E-18   6.23905471733237E-16   6.22869226329045E-16
     -1.33619015774965E-15  -1.21771747599451E+01  -1.21771747599451E+01   0.00000000000000E+00   0.00000000000000E+00
     -2.29578312052402E-17  -1.97868158010212E-15  -2.00163941130737E-15  -2.08041173172704E-15
      2.53543495198903E-01
      8.00000000000000E-01   8.00000000000000E-01   0.00000000000000E+00   0.00000000000000E+00   1.37363720495862E-15
     -1.44943619778344E-17   1.35914284298079E-15   3.40087973436083E-15   0.00000000000000E+00   0.00000000000000E+00
      0.00000000000000E+00   0.00000000000000E+00  -1.03624096946091E-18   2.26258023762101E-15   2.26154399665155E-15
     -1.31131141788737E-15  -1.26771747599451E+01  -1.26771747599451E+01   0.00000000000000E+00   0.00000000000000E+00
     -2.29581445128263E-17  -3.59772869511951E-15  -3.62068683963234E-15  -2.08956831647348E-15
      2.63543495198903E-01
      8.00000000000000E-01   8.00000000000000E-01   0.00000000000000E+00   0.00000000000000E+00   1.37373194123167E-15
      5.93089900464511E-18   1.37966284023631E-15   3.38536932731067E-15   0.00000000000000E+00   0.00000000000000E+00
      0.00000000000000E+00   0.00000000000000E+00  -1.03623657792479E-18   7.51514188271891E-15   7.51410564614099E-15
     -1.28641297316861E-15  -1.31771747599451E+01  -1.31771747599451E+01   0.00000000000000E+00   0.00000000000000E+00
     -2.29584662705679E-17  -8.87081002010671E-15  -8.89376848637728E-15  -2.09895635414205E-15
      2.73543495198903E-01
      8.00000000000000E-01   8.00000000000000E-01   0.00000000000000E+00   0.00000000000000E+00   1.37363838918892E-15
     -1.93152822453973E-17   1.35432310694352E-15   3.37007446668808E-15   0.00000000000000E+00   0.00000000000000E+00
      0.00000000000000E+00   0.00000000000000E+00  -1.03623215183626E-18   2.37816012630700E-14   2.37805650309181E-14
     -1.26149974162947E-15  -1.36771747599451E+01  -1.36771747599451E+01   0.00000000000000E+00   0.00000000000000E+00
     -2.29587964751514E-17  -2.51119293413864E-14  -2.51348881378615E-14  -2.10857472505861E-15
      2.83543495198903E-01
      8.00000000000000E-01   8.00000000000000E-01   0.00000000000000E+00   0.00000000000000E+00   1.37336932430462E-15
     -1.61101442142933E-17   1.35725918009032E-15   3.35499934733892E-15   0.00000000000000E+00  -9.18447372075268E-17
      0.00000000000000E+00   0.00000000000000E+00  -1.03622778979487E-18   7.24092535967904E-14   7.24082173690007E-14
     -1.23657706199880E-15  -1.41771747599451E+01  -1.41771747599451E+01   0.00000000000000E+00   0.00000000000000E+00
     -2.29591351230647E-17  -7.37425174139680E-14  -7.37654765490911E-14  -2.11842228534013E-15
      2.93543495198903E-01
      8.00000000000000E-01   8.00000000000000E-01   0.00000000000000E+00   0.00000000000000E+00   1.37287951700308E-15
      1.74361976649205E-17   1.39031571466800E-15   3.34014948508420E-15   0.00000000000000E+00  -1.83689474415054E-16
      0.00000000000000E+00   0.00000000000000E+00  -1.03622339982319E-18   2.12645205779940E-13   2.12644169556540E-13
     -1.21165159463796E-15  -1.46771747599451E+01  -1.46771747599451E+01   0.00000000000000E+00   0.00000000000000E+00
     -2.29594822114044E-17  -2.14011525788995E-13  -2.14034485271206E-13  -2.12849789044624E-15
      3.03543495198903E-01
      8.00000000000000E-01   8.00000000000000E-01   0.00000000000000E+00   0.00000000000000E+00   1.37202398080673E-15
     -1.59919428504766E-17   1.35603203795625E-15   3.32553265161040E-15   0.00000000000000E+00  -6.42913160452687E-16
      0.00000000000000E+00   0.00000000000000E+00  -1.03621803084142E-18   6.02535197528691E-13   6.02534161310661E-13
     -1.18673221438085E-15  -1.51771747599451E+01  -1.51771747599451E+01   0.00000000000000E+00   0.00000000000000E+00
     -2.29598377393211E-17  -6.03867233510878E-13  -6.03890193348617E-13  -2.13880043722954E-15
      3.13543495198903E-01
      8.00000000000000E-01   8.00000000000000E-01   0.00000000000000E+00   0.00000000000000E+00   1.37046039927041E-15
     -2.84331377215949E-18   1.36761708549825E-15   3.31116007428675E-15   0.00000000000000E+00  -1.65320526973548E-15
      0.00000000000000E+00   0.00000000000000E+00  -1.03621349866849E-18   1.64681376137201E-12   1.64681272515852E-12
     -1.16183111934392E-15  -1.56771747599451E+01  -1.56771747599451E+01   0.00000000000000E+00   0.00000000000000E+00
     -2.29602017112077E-17  -1.64815738204230E-12  -1.64818034224401E-12  -2.14932895494284E-15
      3.23543495198903E-01
      8.00000000000000E-01   8.00000000000000E-01   0.00000000000000E+00   0.00000000000000E+00   1.36743412492204E-15
     -1.92485209142308E-18   1.36550927283062E-15   3.29704818308403E-15   0.00000000000000E+00  -4.31670264875376E-15
      0.00000000000000E+00   0.00000000000000E+00  -1.03620771534162E-18   4.33897682043374E-12   4.33897578422602E-12
     -1.13696537752243E-15  -1.61771747599451E+01  -1.61771747599451E+01   0.00000000000000E+00   0.00000000000000E+00
     -2.29605741437202E-17  -4.34031833292472E-12  -4.34034129349886E-12  -2.16008280556161E-15
      3.33543495198903E-01
      8.00000000000000E-01   8.00000000000000E-01   0.00000000000000E+00   0.00000000000000E+00   1.36134832231655E-15
      1.85162196095831E-17   1.37986454192614E-15   3.28322132110569E-15   0.00000000000000E+00  -1.10213684649032E-14
      0.00000000000000E+00   0.00000000000000E+00  -1.03619753019234E-18   1.10118449831628E-11   1.10118439469652E-11
     -1.11215920938456E-15  -1.66771747599451E+01  -1.66771747599451E+01   0.00000000000000E+00   0.00000000000000E+00
     -2.29609550808560E-17  -1.10132008505520E-11  -1.10132238115071E-11  -2.17106211172113E-15
      3.43543495198903E-01
      8.00000000000000E-01   8.00000000000000E-01   0.00000000000000E+00   0.00000000000000E+00   1.34902509961091E-15
      9.78204984972061E-18   1.35880714946063E-15   3.26971605293287E-15   0.00000000000000E+00  -2.69105080018053E-14
      0.00000000000000E+00   0.00000000000000E+00  -1.03617678328964E-18   2.68901565945670E-11   2.68901555583903E-11
     -1.08744742567539E-15  -1.71771747599451E+01  -1.71771747599451E+01   0.00000000000000E+00   0.00000000000000E+00
     -2.29613446247156E-17  -2.68914914041949E-11  -2.68915143655395E-11  -2.18226862725749E-15
      3.53543495198903E-01
      8.00000000000000E-01   8.00000000000000E-01   0.00000000000000E+00   0.00000000000000E+00   1.32478139794561E-15
      5.30076644087527E-18   1.33008216438648E-15   3.25658792812653E-15   0.00000000000000E+00  -6.30973344615709E-14
      0.00000000000000E+00   0.00000000000000E+00  -1.03613143182836E-18   6.30881702434402E-11   6.30881692073088E-11
     -1.06288052971508E-15  -1.76771747599451E+01  -1.76771747599451E+01   0.00000000000000E+00   0.00000000000000E+00
     -2.29617429944070E-17  -6.30894763277299E-11  -6.30894992894729E-11  -2.19370739841144E-15
      3.63543495198903E-01
      8.00000000000000E-01   8.00000000000000E-01   0.00000000000000E+00   0.00000000000000E+00   1.28025304432061E-15
     -2.01073016276043E-18   1.27824231415785E-15   3.24392152725024E-15   0.00000000000000E+00  -1.41900118985629E-13
      0.00000000000000E+00   0.00000000000000E+00  -1.03603618432148E-18   1.41920025138530E-10   1.41920024102493E-10
     -1.03853184778134E-15  -1.81771747599451E+01  -1.81771747599450E+01   0.00000000000000E+00   0.00000000000000E+00
     -2.29621506297871E-17  -1.41921279382657E-10  -1.41921302344807E-10  -2.20538967946889E-15
      3.73543495198903E-01
      8.00000000000000E-01   8.00000000000000E-01   0.00000000000000E+00   0.00000000000000E+00   1.20716985623260E-15
     -1.16202516689427E-17   1.19554960456366E-15   3.23184373541278E-15   0.00000000000000E+00  -3.05291906477819E-13
      0.00000000000000E+00   0.00000000000000E+00  -1.03585770020444E-18   3.05271748631708E-10   3.05271747595850E-10
     -1.01450624514549E-15  -1.86771747599451E+01  -1.86771747599448E+01   0.00000000000000E+00   0.00000000000000E+00
     -2.29625683543872E-17  -3.05272920182886E-10  -3.05272943145454E-10  -2.21733749026730E-15
      3.83543495198903E-01
      8.00000000000000E-01   8.00000000000000E-01   0.00000000000000E+00   0.00000000000000E+00   1.10407764261415E-15
     -2.13126442825935E-17   1.08276499833156E-15   3.22053754119210E-15   0.00000000000000E+00  -6.25646349857672E-13
      0.00000000000000E+00   0.00000000000000E+00  -1.03557284446732E-18   6.25665309010675E-10   6.25665307975102E-10
     -9.90947962130155E-16  -1.91771747599451E+01  -1.91771747599445E+01   0.00000000000000E+00   0.00000000000000E+00
     -2.29629975900224E-17  -6.25666367777099E-10  -6.25666390740097E-10  -2.22958957906194E-15
      3.93543495198903E-01
      8.00000000000000E-01   8.00000000000000E-01   0.00000000000000E+00   0.00000000000000E+00   9.81148841645989E-16
     -1.09337631753505E-21   9.81147748269671E-16   3.21024892591183E-15   0.00000000000000E+00  -1.21685092326252E-12
      0.00000000000000E+00   0.00000000000000E+00  -1.03518992755375E-18   1.21683858138015E-09   1.21683858034496E-09
     -9.68041909819339E-16  -1.96771747599451E+01  -1.96771747599439E+01   0.00000000000000E+00   0.00000000000000E+00
     -2.29634405611842E-17  -1.21683953852926E-09  -1.21683956149270E-09  -2.24220701609249E-15
      4.03543495198903E-01
      8.00000000000000E-01   8.00000000000000E-01   0.00000000000000E+00   0.00000000000000E+00   8.55178256508583E-16
      5.50975623973008E-18   8.60688012748314E-16   3.20127527700232E-15   0.00000000000000E+00  -2.23687857468931E-12
      0.00000000000000E+00   0.00000000000000E+00  -1.03474251924385E-18   2.23686012043413E-09   2.23686011939938E-09
     -9.46000675510513E-16  -2.01771747599451E+01  -2.01771747599429E+01   0.00000000000000E+00   0.00000000000000E+00
     -2.29639003539121E-17  -2.23686095712350E-09  -2.23686098008740E-09  -2.25527460149180E-15
      4.13543495198903E-01
      8.00000000000000E-01   8.00000000000000E-01   0.00000000000000E+00   0.00000000000000E+00   7.39514984456036E-16
     -1.50083411100244E-17   7.24506643346012E-16   3.19392732573374E-15   0.00000000000000E+00  -3.87593975489484E-12
      0.00000000000000E+00   0.00000000000000E+00  -1.03426005245953E-18   3.87591136800603E-09   3.87591136697177E-09
     -9.25033437176830E-16  -2.06771747599451E+01  -2.06771747599413E+01   0.00000000000000E+00   0.00000000000000E+00
     -2.29643806781209E-17  -3.87591206851403E-09  -3.87591209147841E-09  -2.26889388855691E-15
      4.23543495198903E-01
      8.00000000000000E-01   8.00000000000000E-01   0.00000000000000E+00   0.00000000000000E+00   6.39591158574051E-16
      1.53686133050489E-17   6.54959771879100E-16   3.18847251442768E-15   0.00000000000000E+00  -6.32782685938697E-12
      0.00000000000000E+00   0.00000000000000E+00  -1.03375066301216E-18   6.32782128293873E-09   6.32782128190498E-09
     -9.05305003186488E-16  -2.11771747599451E+01  -2.11771747599388E+01   0.00000000000000E+00   0.00000000000000E+00
     -2.29648853180101E-17  -6.32782191389985E-09  -6.32782193686473E-09  -2.28316751124119E-15
      4.33543495198903E-01
      8.00000000000000E-01   8.00000000000000E-01   0.00000000000000E+00   0.00000000000000E+00   5.55273315162315E-16
      3.06333929070600E-17   5.85906708069375E-16   3.18508508622510E-15   0.00000000000000E+00  -9.75648274408115E-12
      0.00000000000000E+00   0.00000000000000E+00  -1.03320582074417E-18   9.75648448611308E-09   9.75648448507988E-09
     -8.86904059900316E-16  -2.16771747599451E+01  -2.16771747599354E+01   0.00000000000000E+00   0.00000000000000E+00
     -2.29654174871400E-17  -9.75648504802104E-09  -9.75648507098645E-09  -2.29818102632479E-15
      4.43543495198903E-01
      8.00000000000000E-01   8.00000000000000E-01   0.00000000000000E+00   0.00000000000000E+00   4.84650534163439E-16
     -1.95037294871759E-18   4.82700161214721E-16   3.18382670521779E-15   0.00000000000000E+00  -1.42731313857357E-11
      0.00000000000000E+00   0.00000000000000E+00  -1.03261162053991E-18   1.42731390319200E-08   1.42731390308874E-08
     -8.69835788179264E-16  -2.21771747599451E+01  -2.21771747599309E+01   0.00000000000000E+00   0.00000000000000E+00
     -2.29659793951736E-17  -1.42731394906215E-08  -1.42731395135874E-08  -2.31399091703852E-15
      4.53543495198903E-01
      8.00000000000000E-01   8.00000000000000E-01   0.00000000000000E+00   0.00000000000000E+00   4.25794991805629E-16
     -1.13116564101802E-17   4.14483335395449E-16   3.18466038020336E-15   0.00000000000000E+00  -1.99321448687775E-11
      0.00000000000000E+00   0.00000000000000E+00  -1.03195536129342E-18   1.99321059674305E-08   1.99321059663985E-08
     -8.54037693526835E-16  -2.26771747599451E+01  -2.26771747599252E+01   0.00000000000000E+00   0.00000000000000E+00
     -2.29665721695336E-17  -1.99321063579150E-08  -1.99321063808815E-08  -2.33062268667651E-15
      4.63543495198903E-01
      8.00000000000000E-01   8.00000000000000E-01   0.00000000000000E+00   0.00000000000000E+00   3.76947933172317E-16
     -3.73283837642384E-20   3.76910604788553E-16   3.18748220919679E-15   0.00000000000000E+00  -2.67406870827086E-11