DF-ISE text

Info {
  version   = 1.0
  type      = xyplot
  datasets  = [
    "time"
    "Ntop OuterVoltage" "Ntop InnerVoltage" "Ntop QuasiFermiPotential" "Ntop DisplacementCurrent" "Ntop eCurrent"
    "Ntop hCurrent" "Ntop TotalCurrent" "Ntop Charge" "Ptop OuterVoltage" "Ptop InnerVoltage"
    "Ptop QuasiFermiPotential" "Ptop DisplacementCurrent" "Ptop eCurrent" "Ptop hCurrent" "Ptop TotalCurrent"
    "Ptop Charge" "Pbot OuterVoltage" "Pbot InnerVoltage" "Pbot QuasiFermiPotential" "Pbot DisplacementCurrent"
    "Pbot eCurrent" "Pbot hCurrent" "Pbot TotalCurrent" "Pbot Charge" ]
  functions = [
    Time
    OuterVoltage InnerVoltage QuasiFermiPotential DisplacementCurrent eCurrent
    hCurrent TotalCurrent Charge OuterVoltage InnerVoltage
    QuasiFermiPotential DisplacementCurrent eCurrent hCurrent TotalCurrent
    Charge OuterVoltage InnerVoltage QuasiFermiPotential DisplacementCurrent
    eCurrent hCurrent TotalCurrent Charge ]
}

Data {
      1.00000000000000E-03
      8.00000000000000E-01   8.00000000000000E-01   0.00000000000000E+00   0.00000000000000E+00   5.57982465982062E-16
      2.75750823489070E-19   5.58258216805551E-16   3.40671659690053E-15   0.00000000000000E+00   0.00000000000000E+00
      0.00000000000000E+00   0.00000000000000E+00  -1.03635307949589E-18  -6.45428311853231E-17  -6.55791842648190E-17
     -1.48113239667305E-15  -5.00000000000000E-02  -5.00000000000000E-02   0.00000000000000E+00   0.00000000000000E+00
     -2.29526236912007E-17  -4.69726408849531E-16  -4.92679032540732E-16  -1.92558420022748E-15
      2.91111111111111E-03
      8.00000000000000E-01   8.00000000000000E-01   0.00000000000000E+00   0.00000000000000E+00   5.89601410283465E-16
     -8.10544753355589E-19   5.88790865530110E-16   3.40759810990200E-15   0.00000000000000E+00   0.00000000000000E+00
      0.00000000000000E+00   0.00000000000000E+00  -1.03635307891294E-18  -6.44165341683031E-17  -6.54528872472160E-17
     -1.48113054367478E-15  -1.45555555555556E-01  -1.45555555555555E-01   0.00000000000000E+00   0.00000000000000E+00
     -2.29526526231383E-17  -5.00385325659756E-16  -5.23337978282894E-16  -1.92646756622722E-15
      6.56345679012346E-03
      8.00000000000000E-01   8.00000000000000E-01   0.00000000000000E+00   0.00000000000000E+00   6.46080312557196E-16
      1.08037343206081E-18   6.47160685989257E-16   3.40927853825963E-15   0.00000000000000E+00   0.00000000000000E+00
      0.00000000000000E+00   0.00000000000000E+00  -1.03635307710568E-18  -6.41901295096715E-17  -6.52264825867772E-17
     -1.48112479842894E-15  -3.28172839506173E-01  -3.28172839506173E-01   0.00000000000000E+00   0.00000000000000E+00
     -2.29527079264287E-17  -5.58981495476051E-16  -5.81934203402480E-16  -1.92815373983069E-15
      1.35434951989026E-02
      8.00000000000000E-01   8.00000000000000E-01   0.00000000000000E+00   0.00000000000000E+00   7.43262635490315E-16
      1.42129731013645E-18   7.44683932800451E-16   3.41246745159959E-15   0.00000000000000E+00   0.00000000000000E+00
      0.00000000000000E+00   0.00000000000000E+00  -1.03635306880824E-18  -6.38308117654426E-17  -6.48671648342509E-17
     -1.48109842358720E-15  -6.77174759945130E-01  -6.77174759945130E-01   0.00000000000000E+00   0.00000000000000E+00
     -2.29528136190135E-17  -6.56863954347186E-16  -6.79816767966200E-16  -1.93136902801240E-15
      2.35434951989026E-02
      8.00000000000000E-01   8.00000000000000E-01   0.00000000000000E+00   0.00000000000000E+00   8.65167593344841E-16
      2.55587798942565E-18   8.67723471334267E-16   3.41692856058396E-15   0.00000000000000E+00   0.00000000000000E+00
      0.00000000000000E+00   0.00000000000000E+00  -1.03635302736966E-18  -6.34600904855594E-17  -6.44964435129290E-17
     -1.48096674096410E-15  -1.17717475994513E+00  -1.17717475994513E+00   0.00000000000000E+00   0.00000000000000E+00
     -2.29529650202920E-17  -7.80274062801046E-16  -8.03227027821338E-16  -1.93596181961985E-15
      3.35434951989026E-02
      8.00000000000000E-01   8.00000000000000E-01   0.00000000000000E+00   0.00000000000000E+00   9.70183998560237E-16
     -1.12694805228194E-19   9.70071303755009E-16   3.42107253538887E-15   0.00000000000000E+00   0.00000000000000E+00
      0.00000000000000E+00   0.00000000000000E+00  -1.03635288524700E-18  -6.32780795973697E-17  -6.43144324826167E-17
     -1.48051522273258E-15  -1.67717475994513E+00  -1.67717475994513E+00   0.00000000000000E+00   0.00000000000000E+00
     -2.29531169094116E-17  -8.82803754362981E-16  -9.05756871272392E-16  -1.94055731265630E-15
      4.35434951989026E-02
      8.00000000000000E-01   8.00000000000000E-01   0.00000000000000E+00   0.00000000000000E+00   1.05600809621162E-15
     -9.24952844500550E-19   1.05508314336712E-15   3.42446567985567E-15   0.00000000000000E+00   0.00000000000000E+00
      0.00000000000000E+00   0.00000000000000E+00  -1.03635248997605E-18  -6.33700854187946E-17  -6.44064379087707E-17
     -1.47925810724967E-15  -2.17717475994513E+00  -2.17717475994513E+00   0.00000000000000E+00   0.00000000000000E+00
     -2.29532709431815E-17  -9.67723434515169E-16  -9.90676705458350E-16  -1.94520757260600E-15
      5.35434951989026E-02
      8.00000000000000E-01   8.00000000000000E-01   0.00000000000000E+00   0.00000000000000E+00   1.12589113551114E-15
      2.71705458239751E-18   1.12860819009354E-15   3.42636585458043E-15   0.00000000000000E+00   0.00000000000000E+00
      0.00000000000000E+00   0.00000000000000E+00  -1.03635159584267E-18  -6.38942868774421E-17  -6.49306384732848E-17
     -1.47639951432927E-15  -2.67717475994513E+00  -2.67717475994513E+00   0.00000000000000E+00   0.00000000000000E+00
     -2.29534288717631E-17  -1.04072412274849E-15  -1.06367755162025E-15  -1.94996634025117E-15
      6.35434951989026E-02
      8.00000000000000E-01   8.00000000000000E-01   0.00000000000000E+00   0.00000000000000E+00   1.18254454062931E-15
     -9.11596546812435E-19   1.18163294408250E-15   3.42598934003950E-15   0.00000000000000E+00   0.00000000000000E+00
      0.00000000000000E+00   0.00000000000000E+00  -1.03634996769498E-18  -6.51001332692766E-17  -6.61364832369716E-17
     -1.47111336811366E-15  -3.17717475994513E+00  -3.17717475994513E+00   0.00000000000000E+00   0.00000000000000E+00
     -2.29535920906118E-17  -1.09254286875491E-15  -1.11549646084553E-15  -1.95487597192584E-15
      7.35434951989026E-02
      8.00000000000000E-01   8.00000000000000E-01   0.00000000000000E+00   0.00000000000000E+00   1.22756089463118E-15
      3.87907896297428E-18   1.23143997359415E-15   3.42311990897626E-15   0.00000000000000E+00   0.00000000000000E+00
      0.00000000000000E+00   0.00000000000000E+00  -1.03634758318640E-18  -6.72834599009787E-17  -6.83198074841651E-17
     -1.46314965072363E-15  -3.67717475994513E+00  -3.67717475994513E+00   0.00000000000000E+00   0.00000000000000E+00
     -2.29537617249182E-17  -1.14016640438507E-15  -1.16312016610999E-15  -1.95997025825262E-15
      8.35434951989026E-02
      8.00000000000000E-01   8.00000000000000E-01   0.00000000000000E+00   0.00000000000000E+00   1.26269951388410E-15
     -1.29757175957659E-17   1.24972379628833E-15   3.41827145923332E-15   0.00000000000000E+00   0.00000000000000E+00
      0.00000000000000E+00   0.00000000000000E+00  -1.03634465006888E-18  -7.05280910327956E-17  -7.15644356828645E-17
     -1.45299453906529E-15  -4.17717475994513E+00  -4.17717475994513E+00   0.00000000000000E+00   0.00000000000000E+00
     -2.29539387077431E-17  -1.15520542189773E-15  -1.17815936060547E-15  -1.96527692016804E-15
      9.35434951989026E-02
      8.00000000000000E-01   8.00000000000000E-01   0.00000000000000E+00   0.00000000000000E+00   1.28938193129329E-15
     -2.35769588681205E-18   1.28702423540647E-15   3.41210504055839E-15   0.00000000000000E+00   0.00000000000000E+00
      0.00000000000000E+00   0.00000000000000E+00  -1.03634138915895E-18  -7.42112198283716E-17  -7.52475612175306E-17
     -1.44129065696348E-15  -4.67717475994513E+00  -4.67717475994513E+00   0.00000000000000E+00   0.00000000000000E+00
     -2.29541236692602E-17  -1.18882255051968E-15  -1.21177667418894E-15  -1.97081438359491E-15
      1.03543495198903E-01
      8.00000000000000E-01   8.00000000000000E-01   0.00000000000000E+00   0.00000000000000E+00   1.30833148444279E-15
     -2.52274903692483E-18   1.30580873540587E-15   3.40506003938622E-15   0.00000000000000E+00   0.00000000000000E+00
      0.00000000000000E+00   0.00000000000000E+00  -1.03633792980871E-18  -7.70207078478558E-17  -7.80570457776646E-17
     -1.42846855247215E-15  -5.17717475994513E+00  -5.17717475994513E+00   0.00000000000000E+00   0.00000000000000E+00
     -2.29543169239636E-17  -1.20479737270424E-15  -1.22775168962820E-15  -1.97659148691407E-15
      1.13543495198903E-01
      8.00000000000000E-01   8.00000000000000E-01   0.00000000000000E+00   0.00000000000000E+00   1.32114566320846E-15
      6.17280513792763E-18   1.32731846834639E-15   3.39737967215851E-15   0.00000000000000E+00   0.00000000000000E+00
      0.00000000000000E+00   0.00000000000000E+00  -1.03633433570152E-18  -7.84029663717585E-17  -7.94393007074601E-17
     -1.41476844858138E-15  -5.67717475994513E+00  -5.67717475994513E+00   0.00000000000000E+00   0.00000000000000E+00
     -2.29545185934759E-17  -1.22492464904545E-15  -1.24787916763893E-15  -1.98261122357713E-15
      1.23543495198903E-01
      8.00000000000000E-01   8.00000000000000E-01   0.00000000000000E+00   0.00000000000000E+00   1.33010437379932E-15
      5.09246525509607E-18   1.33519683905441E-15   3.38919992380042E-15   0.00000000000000E+00   0.00000000000000E+00
      0.00000000000000E+00   0.00000000000000E+00  -1.03633063921700E-18  -7.87723478857424E-17  -7.98086785249594E-17
     -1.40032619670471E-15  -6.17717475994513E+00  -6.17717475994513E+00   0.00000000000000E+00   0.00000000000000E+00
     -2.29547287051881E-17  -1.23243343182427E-15  -1.25538816052946E-15  -1.98887372709572E-15
      1.33543495198903E-01
      8.00000000000000E-01   8.00000000000000E-01   0.00000000000000E+00   0.00000000000000E+00   1.33684319206923E-15
      1.08961366362153E-17   1.34773932870545E-15   3.38060213922524E-15   0.00000000000000E+00   0.00000000000000E+00
      0.00000000000000E+00   0.00000000000000E+00  -1.03632685869541E-18  -7.85883524268142E-17  -7.96246792855096E-17
     -1.38522434758614E-15  -6.67717475994513E+00  -6.67717475994513E+00   0.00000000000000E+00   0.00000000000000E+00
     -2.29549472426186E-17  -1.24515970217732E-15  -1.26811464941994E-15  -1.99537779163910E-15
      1.43543495198903E-01
      8.00000000000000E-01   8.00000000000000E-01   0.00000000000000E+00   0.00000000000000E+00   1.34223081896047E-15
      1.54720220571884E-18   1.34377802116619E-15   3.37163828487739E-15   0.00000000000000E+00   0.00000000000000E+00
      0.00000000000000E+00   0.00000000000000E+00  -1.03632300577472E-18  -7.80798175504644E-17  -7.91161405562392E-17
     -1.36951670224944E-15  -7.17717475994513E+00  -7.17717475994513E+00   0.00000000000000E+00   0.00000000000000E+00
     -2.29551741689572E-17  -1.24170670644099E-15  -1.26466188060995E-15  -2.00212158262795E-15
      1.53543495198903E-01
      8.00000000000000E-01   8.00000000000000E-01   0.00000000000000E+00   0.00000000000000E+00   1.34669264338514E-15
      2.46154030186712E-18   1.34915418368701E-15   3.36234311426065E-15   0.00000000000000E+00   0.00000000000000E+00
      0.00000000000000E+00   0.00000000000000E+00  -1.03631908856269E-18  -7.73671600029619E-17  -7.84034790915246E-17
     -1.35324013481053E-15  -7.67717475994513E+00  -7.67717475994513E+00   0.00000000000000E+00   0.00000000000000E+00
     -2.29554094384260E-17  -1.24779529515706E-15  -1.27075070459549E-15  -2.00910297945014E-15
      1.63543495198903E-01
      8.00000000000000E-01   8.00000000000000E-01   0.00000000000000E+00   0.00000000000000E+00   1.35044738560358E-15
     -6.35979445403924E-18   1.34408759114955E-15   3.35274043685116E-15   0.00000000000000E+00   0.00000000000000E+00
      0.00000000000000E+00   0.00000000000000E+00  -1.03631511312853E-18  -7.65065722473418E-17  -7.75428873604704E-17
     -1.33642068449223E-15  -8.17717475994513E+00  -8.17717475994513E+00   0.00000000000000E+00   0.00000000000000E+00
     -2.29556530021488E-17  -1.24358905078693E-15  -1.26654470378908E-15  -2.01631975235893E-15
      1.73543495198903E-01
      8.00000000000000E-01   8.00000000000000E-01   0.00000000000000E+00   0.00000000000000E+00   1.35363352849483E-15
     -1.56274890959727E-17   1.33800603939886E-15   3.34284662911309E-15   0.00000000000000E+00   0.00000000000000E+00
      0.00000000000000E+00   0.00000000000000E+00  -1.03631108428095E-18  -7.55126244450931E-17  -7.65489355293741E-17
     -1.31907696927130E-15  -8.67717475994513E+00  -8.67717475994513E+00   0.00000000000000E+00   0.00000000000000E+00
     -2.29559048113802E-17  -1.23850119905811E-15  -1.26145710386949E-15  -2.02376965984179E-15
      1.83543495198903E-01
      8.00000000000000E-01   8.00000000000000E-01   0.00000000000000E+00   0.00000000000000E+00   1.35635625033746E-15
      1.09860470550657E-17   1.36734229739253E-15   3.33267276412683E-15   0.00000000000000E+00   0.00000000000000E+00
      0.00000000000000E+00   0.00000000000000E+00  -1.03630700601391E-18  -7.43734077443183E-17  -7.54097147503323E-17
     -1.30122226003533E-15  -9.17717475994513E+00  -9.17717475994513E+00   0.00000000000000E+00   0.00000000000000E+00
     -2.29561648193561E-17  -1.26897641782284E-15  -1.29193258264220E-15  -2.03145050409149E-15
      1.93543495198903E-01
      8.00000000000000E-01   8.00000000000000E-01   0.00000000000000E+00   0.00000000000000E+00   1.35869293304383E-15
     -4.87258117669998E-18   1.35382035186713E-15   3.32222604461294E-15   0.00000000000000E+00   0.00000000000000E+00
      0.00000000000000E+00   0.00000000000000E+00  -1.03630288178715E-18  -7.29963075228064E-17  -7.40326104045935E-17
     -1.28286588059302E-15  -9.67717475994513E+00  -9.67717475994513E+00   0.00000000000000E+00   0.00000000000000E+00
     -2.29564329823941E-17  -1.25683130848014E-15  -1.27978774146253E-15  -2.03936016401991E-15
      2.03543495198903E-01
      8.00000000000000E-01   8.00000000000000E-01   0.00000000000000E+00   0.00000000000000E+00   1.36072313611075E-15
      4.98806804012459E-18   1.36571120415087E-15   3.31151098295604E-15   0.00000000000000E+00   0.00000000000000E+00
      0.00000000000000E+00   0.00000000000000E+00  -1.03629871472785E-18  -7.10089240627578E-17  -7.20452227774857E-17
     -1.26401436325447E-15  -1.01771747599451E+01  -1.01771747599451E+01   0.00000000000000E+00   0.00000000000000E+00
     -2.29567092607183E-17  -1.27070927211267E-15  -1.29366598137339E-15  -2.04749661970158E-15
      2.13543495198903E-01
      8.00000000000000E-01   8.00000000000000E-01   0.00000000000000E+00   0.00000000000000E+00   1.36252281144745E-15
      1.58645901251766E-17   1.37838740157263E-15   3.30053070045260E-15   0.00000000000000E+00   0.00000000000000E+00
      0.00000000000000E+00   0.00000000000000E+00  -1.03629450780660E-18  -6.70758947195509E-17  -6.81121892273575E-17
     -1.24467271998578E-15  -1.06771747599451E+01  -1.06771747599451E+01   0.00000000000000E+00   0.00000000000000E+00
     -2.29569936194240E-17  -1.28731821872585E-15  -1.31027521234527E-15  -2.05585798046682E-15
      2.23543495198903E-01
      8.00000000000000E-01   8.00000000000000E-01   0.00000000000000E+00   0.00000000000000E+00   1.36414448738973E-15
     -3.09743593378601E-18   1.36104705145595E-15   3.28928868915583E-15   0.00000000000000E+00   0.00000000000000E+00
      0.00000000000000E+00   0.00000000000000E+00  -1.03629026402230E-18  -5.65122875593913E-17  -5.75485778234136E-17
     -1.22484616197158E-15  -1.11771747599451E+01  -1.11771747599451E+01   0.00000000000000E+00   0.00000000000000E+00
     -2.29572860299241E-17  -1.28054118760261E-15  -1.30349847363253E-15  -2.06444252718425E-15
      2.33543495198903E-01
      8.00000000000000E-01   8.00000000000000E-01   0.00000000000000E+00   0.00000000000000E+00   1.36562646175488E-15
      1.29592524980089E-18   1.36692238700468E-15   3.27779130066988E-15   0.00000000000000E+00   0.00000000000000E+00
      0.00000000000000E+00   0.00000000000000E+00  -1.03628598661192E-18  -2.32195100232356E-17  -2.42557960098475E-17
     -1.20454252556420E-15  -1.16771747599451E+01  -1.16771747599451E+01   0.00000000000000E+00   0.00000000000000E+00
     -2.29575864721308E-17  -1.31970900452270E-15  -1.34266659099483E-15  -2.07324877510567E-15
      2.43543495198903E-01
      8.00000000000000E-01   8.00000000000000E-01   0.00000000000000E+00   0.00000000000000E+00   1.36699710428330E-15
     -1.11413842411489E-18   1.36588296585918E-15   3.26605097052124E-15   0.00000000000000E+00   0.00000000000000E+00
      0.00000000000000E+00   0.00000000000000E+00  -1.03628167927229E-18   8.70303338970921E-17   8.59940522178198E-17
     -1.18377541664943E-15  -1.21771747599451E+01  -1.21771747599451E+01   0.00000000000000E+00   0.00000000000000E+00
     -2.29578949372335E-17  -1.42891912313977E-15  -1.45187701807700E-15  -2.08227555387181E-15
      2.53543495198903E-01
      8.00000000000000E-01   8.00000000000000E-01   0.00000000000000E+00   0.00000000000000E+00   1.36827368506429E-15
      8.97118997528916E-19   1.36917080406182E-15   3.25408963886220E-15   0.00000000000000E+00   0.00000000000000E+00
      0.00000000000000E+00   0.00000000000000E+00  -1.03627734633828E-18   4.52327605276013E-16   4.51291327929675E-16
     -1.16256755502362E-15  -1.26771747599451E+01  -1.26771747599451E+01   0.00000000000000E+00   0.00000000000000E+00
     -2.29582114303965E-17  -1.79750392056110E-15  -1.82046213199149E-15  -2.09152208383859E-15
      2.63543495198903E-01
      8.00000000000000E-01   8.00000000000000E-01   0.00000000000000E+00   0.00000000000000E+00   1.36946045392783E-15
      4.58717903337005E-18   1.37404763296120E-15   3.24194111325124E-15   0.00000000000000E+00   0.00000000000000E+00
      0.00000000000000E+00   0.00000000000000E+00  -1.03627299281723E-18   1.64199650319190E-15   1.64096023019909E-15
     -1.14095310451711E-15  -1.31771747599451E+01  -1.31771747599451E+01   0.00000000000000E+00   0.00000000000000E+00
     -2.29585359719670E-17  -2.99204932718832E-15  -3.01500786316028E-15  -2.10098800873413E-15
      2.73543495198903E-01
      8.00000000000000E-01   8.00000000000000E-01   0.00000000000000E+00   0.00000000000000E+00   1.37054775539052E-15
      2.05734957209151E-17   1.39112125111143E-15   3.22965084545159E-15   0.00000000000000E+00   0.00000000000000E+00
      0.00000000000000E+00   0.00000000000000E+00  -1.03626862416180E-18   5.42282774759477E-15   5.42179147897061E-15
     -1.11897750244632E-15  -1.36771747599451E+01  -1.36771747599451E+01   0.00000000000000E+00   0.00000000000000E+00
     -2.29588685957952E-17  -6.78995386148626E-15  -6.81291273008205E-15  -2.11067334300527E-15
      2.83543495198903E-01
      8.00000000000000E-01   8.00000000000000E-01   0.00000000000000E+00   0.00000000000000E+00   1.37151213939061E-15
      2.66528415012011E-17   1.39816498089182E-15   3.21727249316929E-15   0.00000000000000E+00   0.00000000000000E+00
      0.00000000000000E+00   0.00000000000000E+00  -1.03626424562245E-18   1.71047380332617E-14   1.71037017690161E-14
     -1.09669416686617E-15  -1.41771747599451E+01  -1.41771747599451E+01   0.00000000000000E+00   0.00000000000000E+00
     -2.29592093443228E-17  -1.84789075405636E-14  -1.85018667499079E-14  -2.12057832630312E-15
      2.93543495198903E-01
      8.00000000000000E-01   8.00000000000000E-01   0.00000000000000E+00   0.00000000000000E+00   1.37231389933690E-15
      2.33463681530301E-17   1.39566026748993E-15   3.20486244624567E-15   0.00000000000000E+00  -9.18447372075268E-17
      0.00000000000000E+00   0.00000000000000E+00  -1.03625986054996E-18   5.21091158397154E-14   5.21080795798549E-14
     -1.07415921353821E-15  -1.46771747599451E+01  -1.46771747599451E+01   0.00000000000000E+00   0.00000000000000E+00
     -2.29595582620759E-17  -5.34807802890828E-14  -5.35037398473449E-14  -2.13070323270747E-15
      3.03543495198903E-01
      8.00000000000000E-01   8.00000000000000E-01   0.00000000000000E+00   0.00000000000000E+00   1.37288481816512E-15
      5.62814922996426E-18   1.37851296739508E-15   3.19247468807605E-15   0.00000000000000E+00  -1.83689474415054E-16
      0.00000000000000E+00   0.00000000000000E+00  -1.03625546468912E-18   1.53634620092184E-13   1.53633583836719E-13
     -1.05142647629114E-15  -1.51771747599451E+01  -1.51771747599451E+01   0.00000000000000E+00   0.00000000000000E+00
     -2.29599153901883E-17  -1.54989136888725E-13  -1.55012096804115E-13  -2.14104821178492E-15
      3.13543495198903E-01
      8.00000000000000E-01   8.00000000000000E-01   0.00000000000000E+00   0.00000000000000E+00   1.37309513467582E-15
      1.16863204463258E-17   1.38478145512214E-15   3.18015788057551E-15   0.00000000000000E+00  -4.59223686037634E-16
      0.00000000000000E+00   0.00000000000000E+00  -1.03625102513017E-18   4.38196408714519E-13   4.38195372463493E-13
     -1.02854466072762E-15  -1.56771747599451E+01  -1.56771747599451E+01   0.00000000000000E+00   0.00000000000000E+00
     -2.29602807639993E-17  -4.39557193637853E-13  -4.39580153918617E-13  -2.15161321984789E-15
      3.23543495198903E-01
      8.00000000000000E-01   8.00000000000000E-01   0.00000000000000E+00   0.00000000000000E+00   1.37267795640632E-15
      2.21810789583460E-17   1.39485903536467E-15   3.16795514091608E-15   0.00000000000000E+00  -1.19398158369785E-15
      0.00000000000000E+00   0.00000000000000E+00  -1.03624640862841E-18   1.20787799412692E-12   1.20787695788052E-12
     -1.00555707544385E-15  -1.61771747599451E+01  -1.61771747599451E+01   0.00000000000000E+00   0.00000000000000E+00
     -2.29606544145894E-17  -1.20924885626146E-12  -1.20927181691588E-12  -2.16239806547221E-15
      3.33543495198903E-01
      8.00000000000000E-01   8.00000000000000E-01   0.00000000000000E+00   0.00000000000000E+00   1.37106301536534E-15
     -3.77335875233844E-17   1.33332942784196E-15   3.15590598910172E-15   0.00000000000000E+00  -3.21456580226344E-15
      0.00000000000000E+00   0.00000000000000E+00  -1.03624117003575E-18   3.21413968375381E-12   3.21413864751264E-12
     -9.82503399347545E-16  -1.66771747599451E+01  -1.66771747599451E+01   0.00000000000000E+00   0.00000000000000E+00
     -2.29610363750364E-17  -3.21544901590412E-12  -3.21547197694050E-12  -2.17340258975417E-15
      3.43543495198903E-01
      8.00000000000000E-01   8.00000000000000E-01   0.00000000000000E+00   0.00000000000000E+00   1.36703769933706E-15
     -1.05121488062290E-17   1.35652555053083E-15   3.14404986365360E-15   0.00000000000000E+00  -8.26602634867741E-15
      0.00000000000000E+00   0.00000000000000E+00  -1.03623397253283E-18   8.24660027075766E-12   8.24659923452368E-12
     -9.59422815814640E-16  -1.71771747599451E+01  -1.71771747599451E+01   0.00000000000000E+00   0.00000000000000E+00
     -2.29614266938063E-17  -8.24793279864745E-12  -8.24795576007414E-12  -2.18462704783896E-15
      3.53543495198903E-01
      8.00000000000000E-01   8.00000000000000E-01   0.00000000000000E+00   0.00000000000000E+00   1.35814213014357E-15
     -6.32848891552983E-18   1.35181364122804E-15   3.13243107634754E-15   0.00000000000000E+00  -2.03895316600709E-14
      0.00000000000000E+00   0.00000000000000E+00  -1.03622153286932E-18   2.03737472064642E-11   2.03737461702427E-11
     -9.36358224320423E-16  -1.76771747599451E+01  -1.76771747599451E+01   0.00000000000000E+00   0.00000000000000E+00
     -2.29618254609840E-17  -2.03750750220585E-11  -2.03750979838840E-11  -2.19607285202711E-15
      3.63543495198903E-01
      8.00000000000000E-01   8.00000000000000E-01   0.00000000000000E+00   0.00000000000000E+00   1.33984348815300E-15
      2.97694350982462E-17   1.36961292325125E-15   3.12110563991088E-15   0.00000000000000E+00  -4.84021765083666E-14
      0.00000000000000E+00   0.00000000000000E+00  -1.03619608189914E-18   4.83890699415809E-11   4.83890689053848E-11
     -9.13361670944005E-16  -1.81771747599451E+01  -1.81771747599451E+01   0.00000000000000E+00   0.00000000000000E+00
     -2.29622328578655E-17  -4.83904155560754E-11  -4.83904385183082E-11  -2.20774396896688E-15
      3.73543495198903E-01
      8.00000000000000E-01   8.00000000000000E-01   0.00000000000000E+00   0.00000000000000E+00   1.30514357723762E-15
      1.98177268355554E-17   1.32496130407318E-15   3.11015069929156E-15   0.00000000000000E+00  -1.10213684649032E-13
      0.00000000000000E+00   0.00000000000000E+00  -1.03614302846639E-18   1.10255148495815E-10   1.10255147459672E-10
     -8.90501304230651E-16  -1.86771747599451E+01  -1.86771747599450E+01   0.00000000000000E+00   0.00000000000000E+00
     -2.29626492451848E-17  -1.10256449458328E-10  -1.10256472420977E-10  -2.21964939506092E-15
      3.83543495198903E-01
      8.00000000000000E-01   8.00000000000000E-01   0.00000000000000E+00   0.00000000000000E+00   1.24642963770952E-15
     -7.42504597675105E-18   1.23900459173276E-15   3.09967686348090E-15   0.00000000000000E+00  -2.40357677272097E-13
      0.00000000000000E+00   0.00000000000000E+00  -1.03604125692621E-18   2.40348862708074E-10   2.40348861672032E-10
     -8.67869730383155E-16  -1.91771747599451E+01  -1.91771747599449E+01   0.00000000000000E+00   0.00000000000000E+00
     -2.29630753054984E-17  -2.40350077713547E-10  -2.40350100676623E-10  -2.23180713309775E-15
      3.93543495198903E-01
      8.00000000000000E-01   8.00000000000000E-01   0.00000000000000E+00   0.00000000000000E+00   1.16095936225907E-15
      1.64527427863417E-17   1.17741210504542E-15   3.08984181957647E-15   0.00000000000000E+00  -4.99543525671738E-13
      0.00000000000000E+00   0.00000000000000E+00  -1.03587243655796E-18   4.99540518252984E-10   4.99540517217111E-10
     -8.45592159770942E-16  -1.96771747599451E+01  -1.96771747599446E+01   0.00000000000000E+00   0.00000000000000E+00
     -2.29635122401896E-17  -4.99541671665703E-10  -4.99541694629216E-10  -2.24424965980552E-15
      4.03543495198903E-01
      8.00000000000000E-01   8.00000000000000E-01   0.00000000000000E+00   0.00000000000000E+00   1.05582439826747E-15
     -1.81880432642485E-17   1.03763635500322E-15   3.08085968435652E-15   0.00000000000000E+00  -9.85861409185592E-13
      0.00000000000000E+00   0.00000000000000E+00  -1.03563523162239E-18   9.85874982767982E-10   9.85874981732347E-10
     -8.23830059198884E-16  -2.01771747599451E+01  -2.01771747599442E+01   0.00000000000000E+00   0.00000000000000E+00
     -2.29639619772875E-17  -9.85875996404730E-10  -9.85876019368692E-10  -2.25702962515763E-15
      4.13543495198903E-01
      8.00000000000000E-01   8.00000000000000E-01   0.00000000000000E+00   0.00000000000000E+00   9.44815759899971E-16
     -1.23273784911002E-17   9.32488381408871E-16   3.07299620342342E-15   0.00000000000000E+00  -1.84001746521559E-12
      0.00000000000000E+00   0.00000000000000E+00  -1.03534574930385E-18   1.84004623349920E-09   1.84004623246385E-09
     -8.02773610900563E-16  -2.06771747599451E+01  -2.06771747599433E+01   0.00000000000000E+00   0.00000000000000E+00
     -2.29644272769981E-17  -1.84004714198781E-09  -1.84004716495223E-09  -2.27022259252286E-15
      4.23543495198903E-01
      8.00000000000000E-01   8.00000000000000E-01   0.00000000000000E+00   0.00000000000000E+00   8.40107212915079E-16
     -1.00023653262165E-17   8.30104847588863E-16   3.06654078883117E-15   0.00000000000000E+00  -3.23789436551415E-12
      0.00000000000000E+00   0.00000000000000E+00  -1.03502142851339E-18   3.23791915251118E-09   3.23791915147616E-09
     -7.82618134867978E-16  -2.11771747599451E+01  -2.11771747599419E+01   0.00000000000000E+00   0.00000000000000E+00
     -2.29649115852540E-17  -3.23791995861612E-09  -3.23791998158103E-09  -2.28392265396319E-15
      4.33543495198903E-01
      8.00000000000000E-01   8.00000000000000E-01   0.00000000000000E+00   0.00000000000000E+00   7.48057750403445E-16
     -2.73073624548329E-19   7.47784676778896E-16   3.06175822694848E-15   0.00000000000000E+00  -5.36694721872183E-12
      0.00000000000000E+00   0.00000000000000E+00  -1.03466913428435E-18   5.36699267648714E-09   5.36699267545247E-09
     -7.63528836319921E-16  -2.16771747599451E+01  -2.16771747599398E+01   0.00000000000000E+00   0.00000000000000E+00
     -2.29654185770522E-17  -5.36699340027176E-09  -5.36699342323718E-09  -2.29822939062856E-15
      4.43543495198903E-01
      8.00000000000000E-01   8.00000000000000E-01   0.00000000000000E+00   0.00000000000000E+00   6.69766776779789E-16
      2.24345699081452E-18   6.72010233770603E-16   3.05883978876318E-15   0.00000000000000E+00  -8.39460898076795E-12
      0.00000000000000E+00   0.00000000000000E+00  -1.03428479741976E-18   8.39465359832869E-09   8.39465359729441E-09
     -7.45609168575871E-16  -2.21771747599451E+01  -2.21771747599367E+01   0.00000000000000E+00   0.00000000000000E+00
     -2.29659515436592E-17  -8.39465424633851E-09  -8.39465426930446E-09  -2.31323062018731E-15
      4.53543495198903E-01
      8.00000000000000E-01   8.00000000000000E-01   0.00000000000000E+00   0.00000000000000E+00   6.03339820292261E-16
     -1.60270239369303E-17   5.87312796355331E-16   3.05787732407796E-15   0.00000000000000E+00  -1.24431249968757E-11
      0.00000000000000E+00   0.00000000000000E+00  -1.03385819135348E-18   1.24431503104771E-08   1.24431503094432E-08
     -7.28888258965467E-16  -2.26771747599451E+01  -2.26771747599327E+01   0.00000000000000E+00   0.00000000000000E+00
     -2.29665129122941E-17  -1.24431508737893E-08  -1.24431508967558E-08  -2.32898906511250E-15
      4.63543495198903E-01
      8.00000000000000E-01   8.00000000000000E-01   0.00000000000000E+00   0.00000000000000E+00   5.46239296036658E-16
     -2.33667344060100E-17   5.22872561630648E-16   3.05886819117120E-15   0.00000000000000E+00  -1.75810114410020E-11