DF-ISE text

Info {
  version   = 1.0
  type      = xyplot
  datasets  = [
    "time"
    "Ntop OuterVoltage" "Ntop InnerVoltage" "Ntop QuasiFermiPotential" "Ntop DisplacementCurrent" "Ntop eCurrent"
    "Ntop hCurrent" "Ntop TotalCurrent" "Ntop Charge" "Ptop OuterVoltage" "Ptop InnerVoltage"
    "Ptop QuasiFermiPotential" "Ptop DisplacementCurrent" "Ptop eCurrent" "Ptop hCurrent" "Ptop TotalCurrent"
    "Ptop Charge" "Pbot OuterVoltage" "Pbot InnerVoltage" "Pbot QuasiFermiPotential" "Pbot DisplacementCurrent"
    "Pbot eCurrent" "Pbot hCurrent" "Pbot TotalCurrent" "Pbot Charge" ]
  functions = [
    Time
    OuterVoltage InnerVoltage QuasiFermiPotential DisplacementCurrent eCurrent
    hCurrent TotalCurrent Charge OuterVoltage InnerVoltage
    QuasiFermiPotential DisplacementCurrent eCurrent hCurrent TotalCurrent
    Charge OuterVoltage InnerVoltage QuasiFermiPotential DisplacementCurrent
    eCurrent hCurrent TotalCurrent Charge ]
}

Data {
      1.00000000000000E-03
      8.00000000000000E-01   8.00000000000000E-01   0.00000000000000E+00   0.00000000000000E+00   5.58047113714754E-16
     -6.56157262272572E-20   5.57981497988527E-16   7.21712966315338E-15   0.00000000000000E+00   0.00000000000000E+00
      0.00000000000000E+00   0.00000000000000E+00  -1.03632209363989E-18  -6.46426280720359E-17  -6.56789501656757E-17
     -5.29154547632497E-15  -5.00000000000000E-02  -5.00000000000000E-02   0.00000000000000E+00   0.00000000000000E+00
     -2.29526236907620E-17  -4.69349924132089E-16  -4.92302547822851E-16  -1.92558418682843E-15
      2.91111111111111E-03
      8.00000000000000E-01   8.00000000000000E-01   0.00000000000000E+00   0.00000000000000E+00   5.89666798463991E-16
      1.58864194174412E-18   5.91255440405735E-16   7.21801104440399E-15   0.00000000000000E+00   0.00000000000000E+00
      0.00000000000000E+00   0.00000000000000E+00  -1.03632209303695E-18  -6.45144927694252E-17  -6.55508148624622E-17
     -5.29154349761403E-15  -1.45555555555556E-01  -1.45555555555555E-01   0.00000000000000E+00   0.00000000000000E+00
     -2.29526526225013E-17  -5.02751972920772E-16  -5.25704625543273E-16  -1.92646754678996E-15
      6.56345679012346E-03
      8.00000000000000E-01   8.00000000000000E-01   0.00000000000000E+00   0.00000000000000E+00   6.46147985170628E-16
      1.40918645615307E-18   6.47557171626781E-16   7.21969106420998E-15   0.00000000000000E+00   0.00000000000000E+00
      0.00000000000000E+00   0.00000000000000E+00  -1.03632209116740E-18  -6.42854756527851E-17  -6.53217977439525E-17
     -5.29153736248440E-15  -3.28172839506173E-01  -3.28172839506173E-01   0.00000000000000E+00   0.00000000000000E+00
     -2.29527079251779E-17  -5.59282665957650E-16  -5.82235373882828E-16  -1.92815370172558E-15
      1.35434951989026E-02
      8.00000000000000E-01   8.00000000000000E-01   0.00000000000000E+00   0.00000000000000E+00   7.43340639492060E-16
     -2.67613360874578E-19   7.43073026131185E-16   7.22287809744262E-15   0.00000000000000E+00   0.00000000000000E+00
      0.00000000000000E+00   0.00000000000000E+00  -1.03632208258255E-18  -6.39195748732122E-17  -6.49558969557947E-17
     -5.29150919265038E-15  -6.77174759945130E-01  -6.77174759945130E-01   0.00000000000000E+00   0.00000000000000E+00
     -2.29528136149576E-17  -6.55164315560432E-16  -6.78117129175389E-16  -1.93136890479224E-15
      2.35434951989026E-02
      8.00000000000000E-01   8.00000000000000E-01   0.00000000000000E+00   0.00000000000000E+00   8.65294852616211E-16
      4.00747062483676E-19   8.65695599678694E-16   7.22732971385992E-15   0.00000000000000E+00   0.00000000000000E+00
      0.00000000000000E+00   0.00000000000000E+00  -1.03632203967150E-18  -6.35406827778117E-17  -6.45770048174832E-17
     -5.29136843261593E-15  -1.17717475994513E+00  -1.17717475994513E+00   0.00000000000000E+00   0.00000000000000E+00
     -2.29529650025193E-17  -7.78165629858691E-16  -8.01118594861210E-16  -1.93596128124399E-15
      3.35434951989026E-02
      8.00000000000000E-01   8.00000000000000E-01   0.00000000000000E+00   0.00000000000000E+00   9.70458338710635E-16
     -1.46466810252947E-18   9.68993670608105E-16   7.23144017244114E-15   0.00000000000000E+00   0.00000000000000E+00
      0.00000000000000E+00   0.00000000000000E+00  -1.03632189216299E-18  -6.33621924610357E-17  -6.43985143531987E-17
     -5.29088472585331E-15  -1.67717475994513E+00  -1.67717475994513E+00   0.00000000000000E+00   0.00000000000000E+00
     -2.29531168476642E-17  -8.81642039407242E-16  -9.04595156254906E-16  -1.94055544658782E-15
      4.35434951989026E-02
      8.00000000000000E-01   8.00000000000000E-01   0.00000000000000E+00   0.00000000000000E+00   1.05660973306652E-15
      4.40600977670235E-18   1.06101574284322E-15   7.23473482847809E-15   0.00000000000000E+00   0.00000000000000E+00
      0.00000000000000E+00   0.00000000000000E+00  -1.03632148022133E-18  -6.34720426737234E-17  -6.45083641539448E-17
     -5.28953246072355E-15  -2.17717475994513E+00  -2.17717475994513E+00   0.00000000000000E+00   0.00000000000000E+00
     -2.29532707706083E-17  -9.73554107918665E-16  -9.96507378689273E-16  -1.94520236775453E-15
      5.35434951989026E-02
      8.00000000000000E-01   8.00000000000000E-01   0.00000000000000E+00   0.00000000000000E+00   1.12708246688155E-15
     -4.99906879471569E-18   1.12208339808683E-15   7.23639622775201E-15   0.00000000000000E+00   0.00000000000000E+00
      0.00000000000000E+00   0.00000000000000E+00  -1.03632054403005E-18  -6.40500704538958E-17  -6.50863909979258E-17
     -5.28644186280808E-15  -2.67717475994513E+00  -2.67717475994513E+00   0.00000000000000E+00   0.00000000000000E+00
     -2.29534284739879E-17  -1.03404357861492E-15  -1.05699700708891E-15  -1.94995436494393E-15
      6.35434951989026E-02
      8.00000000000000E-01   8.00000000000000E-01   0.00000000000000E+00   0.00000000000000E+00   1.18456175434530E-15
      1.62121804178779E-18   1.18618297238709E-15   7.23556332041704E-15   0.00000000000000E+00   0.00000000000000E+00
      0.00000000000000E+00   0.00000000000000E+00  -1.03631883719537E-18  -6.53795247589349E-17  -6.64158435961302E-17
     -5.28071048563391E-15  -3.17717475994513E+00  -3.17717475994513E+00   0.00000000000000E+00   0.00000000000000E+00
     -2.29535913207939E-17  -1.09681353747017E-15  -1.11976712879096E-15  -1.95485283478311E-15
      7.35434951989026E-02
      8.00000000000000E-01   8.00000000000000E-01   0.00000000000000E+00   0.00000000000000E+00   1.23037272038670E-15
      4.58832436978672E-18   1.23496104475648E-15   7.23202437060215E-15   0.00000000000000E+00   0.00000000000000E+00
      0.00000000000000E+00   0.00000000000000E+00  -1.03631634951561E-18  -6.77923904191220E-17  -6.88287067686376E-17
     -5.27209230285463E-15  -3.67717475994513E+00  -3.67717475994513E+00   0.00000000000000E+00   0.00000000000000E+00
     -2.29537604522226E-17  -1.14317857753562E-15  -1.16613233798784E-15  -1.95993206774753E-15
      8.35434951989026E-02
      8.00000000000000E-01   8.00000000000000E-01   0.00000000000000E+00   0.00000000000000E+00   1.26608970122318E-15
      4.47925831239534E-18   1.27056895953557E-15   7.22636458624461E-15   0.00000000000000E+00   0.00000000000000E+00
      0.00000000000000E+00   0.00000000000000E+00  -1.03631331138563E-18  -7.13320837884341E-17  -7.23683970998197E-17
     -5.26114351533600E-15  -4.17717475994513E+00  -4.17717475994513E+00   0.00000000000000E+00   0.00000000000000E+00
     -2.29539368437079E-17  -1.17524662559204E-15  -1.19820056243575E-15  -1.96522107090860E-15
      9.35434951989026E-02
      8.00000000000000E-01   8.00000000000000E-01   0.00000000000000E+00   0.00000000000000E+00   1.29292777038003E-15
      8.09310919672138E-18   1.30102087957675E-15   7.21928770523087E-15   0.00000000000000E+00   0.00000000000000E+00
      0.00000000000000E+00   0.00000000000000E+00  -1.03630995122416E-18  -7.52128007991556E-17  -7.62491107503798E-17
     -5.24854893697876E-15  -4.67717475994513E+00  -4.67717475994513E+00   0.00000000000000E+00   0.00000000000000E+00
     -2.29541211417093E-17  -1.20181764768466E-15  -1.22477176882637E-15  -1.97073876825210E-15
      1.03543495198903E-01
      8.00000000000000E-01   8.00000000000000E-01   0.00000000000000E+00   0.00000000000000E+00   1.31162509017519E-15
      6.90365030771190E-18   1.31852874048290E-15   7.21123879196600E-15   0.00000000000000E+00   0.00000000000000E+00
      0.00000000000000E+00   0.00000000000000E+00  -1.03630639630884E-18  -7.79936435062625E-17  -7.90299499025713E-17
     -5.23474498581825E-15  -5.17717475994513E+00  -5.17717475994513E+00   0.00000000000000E+00   0.00000000000000E+00
     -2.29543136539957E-17  -1.21654447692633E-15  -1.23949879058033E-15  -1.97649380614774E-15
      1.13543495198903E-01
      8.00000000000000E-01   8.00000000000000E-01   0.00000000000000E+00   0.00000000000000E+00   1.32409987254234E-15
     -1.90900187286967E-18   1.32219087066947E-15   7.20245225510707E-15   0.00000000000000E+00   0.00000000000000E+00
      0.00000000000000E+00   0.00000000000000E+00  -1.03630270707740E-18  -7.92781024269832E-17  -8.03144051340606E-17
     -5.21996348456449E-15  -5.67717475994513E+00  -5.67717475994513E+00   0.00000000000000E+00   0.00000000000000E+00
     -2.29545144881867E-17  -1.21892195104722E-15  -1.24187646553541E-15  -1.98248877054257E-15
      1.23543495198903E-01
      8.00000000000000E-01   8.00000000000000E-01   0.00000000000000E+00   0.00000000000000E+00   1.33281055588045E-15
     -2.69930603832049E-18   1.33011124984213E-15   7.19304892549998E-15   0.00000000000000E+00   0.00000000000000E+00
      0.00000000000000E+00   0.00000000000000E+00  -1.03629891326667E-18  -7.95606069465054E-17  -8.05969058597720E-17
     -5.20432562481315E-15  -6.17717475994513E+00  -6.17717475994513E+00   0.00000000000000E+00   0.00000000000000E+00
     -2.29547236546707E-17  -1.22655962032769E-15  -1.24951434398236E-15  -1.98872330068684E-15
      1.33543495198903E-01
      8.00000000000000E-01   8.00000000000000E-01   0.00000000000000E+00   0.00000000000000E+00   1.33939982049560E-15
     -3.01710426957240E-18   1.33638271622602E-15   7.18308864978048E-15   0.00000000000000E+00   0.00000000000000E+00
      0.00000000000000E+00   0.00000000000000E+00  -1.03629503087653E-18  -7.93131365974346E-17  -8.03494316283111E-17
     -5.18789306990045E-15  -6.67717475994513E+00  -6.67717475994513E+00   0.00000000000000E+00   0.00000000000000E+00
     -2.29549411159284E-17  -1.23307834348178E-15  -1.25603328459771E-15  -1.99519557988002E-15
      1.43543495198903E-01
      8.00000000000000E-01   8.00000000000000E-01   0.00000000000000E+00   0.00000000000000E+00   1.34471602427327E-15
      9.38844604253615E-18   1.35410447031581E-15   7.17259247855431E-15   0.00000000000000E+00   0.00000000000000E+00
      0.00000000000000E+00   0.00000000000000E+00  -1.03629106899633E-18  -7.87675842830339E-17  -7.98038753520303E-17
     -5.17068951886120E-15  -7.17717475994513E+00  -7.17717475994513E+00   0.00000000000000E+00   0.00000000000000E+00
     -2.29551668071458E-17  -1.25134542815664E-15  -1.27430059496378E-15  -2.00190295969312E-15
      1.53543495198903E-01
      8.00000000000000E-01   8.00000000000000E-01   0.00000000000000E+00   0.00000000000000E+00   1.34917563949840E-15
     -5.57902243849844E-18   1.34359661705990E-15   7.16154930344949E-15   0.00000000000000E+00   0.00000000000000E+00
      0.00000000000000E+00   0.00000000000000E+00  -1.03628703246276E-18  -7.80384226388913E-17  -7.90747096713540E-17
     -5.15270713679102E-15  -7.67717475994513E+00  -7.67717475994513E+00   0.00000000000000E+00   0.00000000000000E+00
     -2.29554006429282E-17  -1.24156650674562E-15  -1.26452190738855E-15  -2.00884216665844E-15
      1.63543495198903E-01
      8.00000000000000E-01   8.00000000000000E-01   0.00000000000000E+00   0.00000000000000E+00   1.35300301545476E-15
     -4.50317821163243E-18   1.34849983724312E-15   7.14991337724422E-15   0.00000000000000E+00   0.00000000000000E+00
      0.00000000000000E+00   0.00000000000000E+00  -1.03628292275239E-18  -7.71750929396336E-17  -7.82113758623860E-17
     -5.13390410358450E-15  -8.17717475994513E+00  -8.17717475994513E+00   0.00000000000000E+00   0.00000000000000E+00
     -2.29556425161437E-17  -1.24733281886460E-15  -1.27028846138074E-15  -2.01600927365970E-15
      1.73543495198903E-01
      8.00000000000000E-01   8.00000000000000E-01   0.00000000000000E+00   0.00000000000000E+00   1.35634922289265E-15
     -3.11568581392897E-18   1.35323353707872E-15   7.13759612195286E-15   0.00000000000000E+00   0.00000000000000E+00
      0.00000000000000E+00   0.00000000000000E+00  -1.03627873810041E-18  -7.61857586330966E-17  -7.72220373711970E-17
     -5.11419659074165E-15  -8.67717475994513E+00  -8.67717475994513E+00   0.00000000000000E+00   0.00000000000000E+00
     -2.29558922920056E-17  -1.25305560741552E-15  -1.27601149970752E-15  -2.02339953121118E-15
      1.83543495198903E-01
      8.00000000000000E-01   8.00000000000000E-01   0.00000000000000E+00   0.00000000000000E+00   1.35932630001653E-15
     -6.34192387713979E-18   1.35298437613939E-15   7.12446268783329E-15   0.00000000000000E+00   0.00000000000000E+00
      0.00000000000000E+00   0.00000000000000E+00  -1.03627447391611E-18  -7.50543101714313E-17  -7.60905846453474E-17
     -5.09345536668005E-15  -9.17717475994513E+00  -9.17717475994513E+00   0.00000000000000E+00   0.00000000000000E+00
     -2.29561498062602E-17  -1.25393764168778E-15  -1.27689379149404E-15  -2.03100732115323E-15
      1.93543495198903E-01
      8.00000000000000E-01   8.00000000000000E-01   0.00000000000000E+00   0.00000000000000E+00   1.36204783491033E-15
     -1.12811856884593E-17   1.35076664922187E-15   7.11037304858452E-15   0.00000000000000E+00   0.00000000000000E+00
      0.00000000000000E+00   0.00000000000000E+00  -1.03627012631265E-18  -7.36111888148271E-17  -7.46474589411397E-17
     -5.07154585880939E-15  -9.67717475994513E+00  -9.67717475994513E+00   0.00000000000000E+00   0.00000000000000E+00
     -2.29564148999619E-17  -1.25316277538077E-15  -1.27611919028073E-15  -2.03882718977512E-15
      2.03543495198903E-01
      8.00000000000000E-01   8.00000000000000E-01   0.00000000000000E+00   0.00000000000000E+00   1.36459554370340E-15
      7.11481879090423E-19   1.36530702558249E-15   7.09532762846502E-15   0.00000000000000E+00   0.00000000000000E+00
      0.00000000000000E+00   0.00000000000000E+00  -1.03626570216552E-18  -7.11109171817137E-17  -7.21471828838792E-17
     -5.04847027557614E-15  -1.01771747599451E+01  -1.01771747599451E+01   0.00000000000000E+00   0.00000000000000E+00
     -2.29566875385618E-17  -1.27020315516005E-15  -1.29315984269861E-15  -2.04685735288888E-15
      2.13543495198903E-01
      8.00000000000000E-01   8.00000000000000E-01   0.00000000000000E+00   0.00000000000000E+00   1.36696675724273E-15
      7.82050199857325E-18   1.37478725924131E-15   7.07960205119594E-15   0.00000000000000E+00   0.00000000000000E+00
      0.00000000000000E+00   0.00000000000000E+00  -1.03626122650246E-18  -6.46593277382883E-17  -6.56955889647908E-17
     -5.02449921485277E-15  -1.06771747599451E+01  -1.06771747599451E+01   0.00000000000000E+00   0.00000000000000E+00
     -2.29569679197095E-17  -1.28613470235680E-15  -1.30909167027651E-15  -2.05510283634316E-15
      2.23543495198903E-01
      8.00000000000000E-01   8.00000000000000E-01   0.00000000000000E+00   0.00000000000000E+00   1.36911665097615E-15
      2.55077259723278E-19   1.36937172823587E-15   7.06359405419145E-15   0.00000000000000E+00   0.00000000000000E+00
      0.00000000000000E+00   0.00000000000000E+00  -1.03625672986802E-18  -4.36769461855702E-17  -4.47132029154382E-17
     -5.00002234432737E-15  -1.11771747599451E+01  -1.11771747599451E+01   0.00000000000000E+00   0.00000000000000E+00
     -2.29572563466708E-17  -1.30170126897376E-15  -1.32465852532043E-15  -2.06357170986406E-15
      2.33543495198903E-01
      8.00000000000000E-01   8.00000000000000E-01   0.00000000000000E+00   0.00000000000000E+00   1.37100345385329E-15
      1.51536751064303E-17   1.38615712895972E-15   7.04758406937839E-15   0.00000000000000E+00   0.00000000000000E+00
      0.00000000000000E+00   0.00000000000000E+00  -1.03625223238278E-18   2.95241909289348E-17   2.84879386965520E-17
     -4.97531472728353E-15  -1.16771747599451E+01  -1.16771747599451E+01   0.00000000000000E+00   0.00000000000000E+00
     -2.29575530330682E-17  -1.39168751462321E-15  -1.41464506765628E-15  -2.07226934209486E-15
      2.43543495198903E-01
      8.00000000000000E-01   8.00000000000000E-01   0.00000000000000E+00   0.00000000000000E+00   1.37258502250921E-15
      9.27843269673266E-18   1.38186345520594E-15   7.03170652639204E-15   0.00000000000000E+00   0.00000000000000E+00
      0.00000000000000E+00   0.00000000000000E+00  -1.03624773622438E-18   2.84468176024613E-16   2.83431928288388E-16
     -4.95050882879796E-15  -1.21771747599451E+01  -1.21771747599451E+01   0.00000000000000E+00   0.00000000000000E+00
     -2.29578580781512E-17  -1.64233752541618E-15  -1.66529538349433E-15  -2.08119769759406E-15
      2.53543495198903E-01
      8.00000000000000E-01   8.00000000000000E-01   0.00000000000000E+00   0.00000000000000E+00   1.37380830530345E-15
     -7.72086104216775E-18   1.36608744426128E-15   7.01601626222807E-15   0.00000000000000E+00   0.00000000000000E+00
      0.00000000000000E+00   0.00000000000000E+00  -1.03624325256956E-18   1.15061404816793E-15   1.14957780491536E-15
     -4.92565938023190E-15  -1.26771747599451E+01  -1.26771747599451E+01   0.00000000000000E+00   0.00000000000000E+00
     -2.29581715188196E-17  -2.49270707765783E-15  -2.51566524917665E-15  -2.09035688199618E-15
      2.63543495198903E-01
      8.00000000000000E-01   8.00000000000000E-01   0.00000000000000E+00   0.00000000000000E+00   1.37463253034542E-15
      4.18967376147519E-17   1.41652926796017E-15   7.00053529502952E-15   0.00000000000000E+00   0.00000000000000E+00
      0.00000000000000E+00   0.00000000000000E+00  -1.03623877156247E-18   4.00059006920302E-15   3.99955383043145E-15
     -4.90078907168476E-15  -1.31771747599451E+01  -1.31771747599451E+01   0.00000000000000E+00   0.00000000000000E+00
     -2.29584933662066E-17  -5.39312460502540E-15  -5.41608309839160E-15  -2.09974622334471E-15
      2.73543495198903E-01
      8.00000000000000E-01   8.00000000000000E-01   0.00000000000000E+00   0.00000000000000E+00   1.37506695474444E-15
     -4.30855900645098E-18   1.37075839573798E-15   6.98527351161801E-15   0.00000000000000E+00   0.00000000000000E+00
      0.00000000000000E+00   0.00000000000000E+00  -1.03623434498374E-18   1.30614719234200E-14   1.30604356890750E-14
     -4.87590876790640E-15  -1.36771747599451E+01  -1.36771747599451E+01   0.00000000000000E+00   0.00000000000000E+00
     -2.29588236216635E-17  -1.44082352611914E-14  -1.44311940848131E-14  -2.10936474371162E-15
      2.83543495198903E-01
      8.00000000000000E-01   8.00000000000000E-01   0.00000000000000E+00   0.00000000000000E+00   1.37516315593060E-15
     -3.75345693099080E-18   1.37140969899961E-15   6.97023685069333E-15   0.00000000000000E+00   0.00000000000000E+00
      0.00000000000000E+00   0.00000000000000E+00  -1.03622986314235E-18   4.08662150533949E-14   4.08651788235318E-14
     -4.85102550853974E-15  -1.41771747599451E+01  -1.41771747599451E+01   0.00000000000000E+00   0.00000000000000E+00
     -2.29591622829716E-17  -4.22136293602487E-14  -4.22365885225316E-14  -2.11921134215360E-15
      2.93543495198903E-01
      8.00000000000000E-01   8.00000000000000E-01   0.00000000000000E+00   0.00000000000000E+00   1.37495756682913E-15
      1.77710192255073E-17   1.39272858605464E-15   6.95543070016614E-15   0.00000000000000E+00  -9.18447372075268E-17
      0.00000000000000E+00   0.00000000000000E+00  -1.03622543276988E-18   1.23162413746776E-13   1.23161377521343E-13
     -4.82614582823943E-15  -1.46771747599451E+01  -1.46771747599451E+01   0.00000000000000E+00   0.00000000000000E+00
     -2.29595093469582E-17  -1.24531146598051E-13  -1.24554106107398E-13  -2.12928487192677E-15
      3.03543495198903E-01
      8.00000000000000E-01   8.00000000000000E-01   0.00000000000000E+00   0.00000000000000E+00   1.37440727764649E-15
     -2.38736373390888E-17   1.35053364030740E-15   6.94086165238005E-15   0.00000000000000E+00  -3.67378948830107E-16
      0.00000000000000E+00   0.00000000000000E+00  -1.03622090571477E-18   3.57947963843838E-13   3.57946927622932E-13
     -4.80127746060852E-15  -1.51771747599451E+01  -1.51771747599451E+01   0.00000000000000E+00   0.00000000000000E+00
     -2.29598648112566E-17  -3.59274501398427E-13  -3.59297461263238E-13  -2.13958419177151E-15
      3.13543495198903E-01
      8.00000000000000E-01   8.00000000000000E-01   0.00000000000000E+00   0.00000000000000E+00   1.37331537828178E-15
     -1.47354448501889E-17   1.35857993343159E-15   6.92653886106423E-15   0.00000000000000E+00  -1.01029210928279E-15
      0.00000000000000E+00   0.00000000000000E+00  -1.03621543953601E-18   1.00313756790443E-12   1.00313653168899E-12
     -4.77643062425732E-15  -1.56771747599451E+01  -1.56771747599451E+01   0.00000000000000E+00   0.00000000000000E+00
     -2.29602286767730E-17  -1.00447215139374E-12  -1.00449511162242E-12  -2.15010823680691E-15
      3.23543495198903E-01
      8.00000000000000E-01   8.00000000000000E-01   0.00000000000000E+00   0.00000000000000E+00   1.37118581127008E-15
     -1.25304600906991E-17   1.35865535117938E-15   6.91247560036192E-15   0.00000000000000E+00  -2.75534211622580E-15
      0.00000000000000E+00   0.00000000000000E+00  -1.03621081502814E-18   2.70948344008980E-12   2.70948240387899E-12
     -4.75161943919943E-15  -1.61771747599451E+01  -1.61771747599451E+01   0.00000000000000E+00   0.00000000000000E+00
     -2.29606009526722E-17  -2.71081809862923E-12  -2.71084105923018E-12  -2.16085616116248E-15
      3.33543495198903E-01
      8.00000000000000E-01   8.00000000000000E-01   0.00000000000000E+00   0.00000000000000E+00   1.36691417380822E-15
      1.41546205089328E-17   1.38106879431716E-15   6.89869149812123E-15   0.00000000000000E+00  -7.07204476497956E-15
      0.00000000000000E+00   0.00000000000000E+00  -1.03620378883309E-18   7.04820735454435E-12   7.04820631834056E-12
     -4.72686385415006E-15  -1.66771747599451E+01  -1.66771747599451E+01   0.00000000000000E+00   0.00000000000000E+00
     -2.29609816671581E-17  -7.04956442615320E-12  -7.04958738713487E-12  -2.17182764397117E-15
      3.43543495198903E-01
      8.00000000000000E-01   8.00000000000000E-01   0.00000000000000E+00   0.00000000000000E+00   1.35820442823189E-15
     -1.22764005805780E-18   1.35697678817384E-15   6.88521602493199E-15   0.00000000000000E+00  -1.76341895438451E-14
      0.00000000000000E+00   0.00000000000000E+00  -1.03619080916021E-18   1.76404307211029E-11   1.76404296849121E-11
     -4.70219249644236E-15  -1.71771747599451E+01  -1.71771747599451E+01   0.00000000000000E+00   0.00000000000000E+00
     -2.29613708900444E-17  -1.76417637003292E-11  -1.76417866617001E-11  -2.18302352848960E-15
      3.53543495198903E-01
      8.00000000000000E-01   8.00000000000000E-01   0.00000000000000E+00   0.00000000000000E+00   1.34069455506029E-15
     -1.24745718105150E-18   1.33944709787924E-15   6.87209403622357E-15   0.00000000000000E+00  -4.24322685898774E-14
      0.00000000000000E+00   0.00000000000000E+00  -1.03616349930253E-18   4.24230082446870E-11   4.24230072085235E-11
     -4.67764695044716E-15  -1.76771747599451E+01  -1.76771747599451E+01   0.00000000000000E+00   0.00000000000000E+00
     -2.29617687775410E-17  -4.24243236938530E-11  -4.24243466556218E-11  -2.19444708577645E-15
      3.63543495198903E-01
      8.00000000000000E-01   8.00000000000000E-01   0.00000000000000E+00   0.00000000000000E+00   1.30728606885221E-15
      2.44470354568052E-17   1.33173310430902E-15   6.85939429366669E-15   0.00000000000000E+00  -9.78146451260160E-14
      0.00000000000000E+00   0.00000000000000E+00  -1.03610479156922E-18   9.78508978266798E-11   9.78508967905750E-11
     -4.65328795953318E-15  -1.81771747599451E+01  -1.81771747599450E+01   0.00000000000000E+00   0.00000000000000E+00
     -2.29621756547260E-17  -9.78522055615035E-11  -9.78522285236791E-11  -2.20610633413351E-15
      3.73543495198903E-01
      8.00000000000000E-01   8.00000000000000E-01   0.00000000000000E+00   0.00000000000000E+00   1.24938247379979E-15
     -1.78970231481659E-17   1.23148545065163E-15   6.84722147985589E-15   0.00000000000000E+00  -2.15926977174895E-13
      0.00000000000000E+00   0.00000000000000E+00  -1.03598825926880E-18   2.15932068785099E-10   2.15932067749111E-10
     -4.62920359179060E-15  -1.86771747599451E+01  -1.86771747599449E+01   0.00000000000000E+00   0.00000000000000E+00
     -2.29625921529696E-17  -2.15933276271968E-10  -2.15933299234560E-10  -2.21801788806529E-15
      3.83543495198903E-01
      8.00000000000000E-01   8.00000000000000E-01   0.00000000000000E+00   0.00000000000000E+00   1.16211016109887E-15
      3.88417170901926E-18   1.16599433280789E-15   6.83573042594736E-15   0.00000000000000E+00  -4.54355914965635E-13
      0.00000000000000E+00   0.00000000000000E+00  -1.03578773879822E-18   4.54391937336151E-10   4.54391936300363E-10
     -4.60551795632232E-15  -1.91771747599451E+01  -1.91771747599447E+01   0.00000000000000E+00   0.00000000000000E+00
     -2.29630194078217E-17  -4.54393079331677E-10  -4.54393102294696E-10  -2.23021246962505E-15
      3.93543495198903E-01
      8.00000000000000E-01   8.00000000000000E-01   0.00000000000000E+00   0.00000000000000E+00   1.05079952351381E-15
      1.52510147307955E-17   1.06605053824460E-15   6.82513728719152E-15   0.00000000000000E+00  -9.08160761508025E-13
      0.00000000000000E+00   0.00000000000000E+00  -1.03549707903688E-18   9.08176810119678E-10   9.08176809084181E-10
     -4.58239622589039E-15  -1.96771747599451E+01  -1.96771747599442E+01   0.00000000000000E+00   0.00000000000000E+00
     -2.29634592821629E-17  -9.08177852171258E-10  -9.08177875134717E-10  -2.24274106130111E-15
      4.03543495198903E-01
      8.00000000000000E-01   8.00000000000000E-01   0.00000000000000E+00   0.00000000000000E+00   9.30035801609726E-16
     -3.47608719803595E-19   9.29688192889922E-16   6.81571730451772E-15   0.00000000000000E+00  -1.71676182788309E-12
      0.00000000000000E+00   0.00000000000000E+00  -1.03513649826252E-18   1.71678068271667E-09   1.71678068168154E-09
     -4.56003864794182E-15  -2.01771747599451E+01  -2.01771747599434E+01   0.00000000000000E+00   0.00000000000000E+00
     -2.29639145072136E-17  -1.71678158840581E-09  -1.71678161136973E-09  -2.25567865657589E-15
      4.13543495198903E-01
      8.00000000000000E-01   8.00000000000000E-01   0.00000000000000E+00   0.00000000000000E+00   8.14662717852003E-16
     -2.25196546321420E-18   8.12410752388789E-16   6.80777813116091E-15   0.00000000000000E+00  -3.05907266217109E-12
      0.00000000000000E+00   0.00000000000000E+00  -1.03473312035379E-18   3.05905492611895E-09   3.05905492508422E-09
     -4.53865703230891E-15  -2.06771747599451E+01  -2.06771747599421E+01   0.00000000000000E+00   0.00000000000000E+00
     -2.29643885802099E-17  -3.05905571453060E-09  -3.05905573749499E-09  -2.26912109885199E-15
      4.23543495198903E-01
      8.00000000000000E-01   8.00000000000000E-01   0.00000000000000E+00   0.00000000000000E+00   7.12951579897123E-16
     -2.03597894632734E-17   6.92591790433850E-16   6.80160883607093E-15   0.00000000000000E+00  -5.13063070988686E-12
      0.00000000000000E+00   0.00000000000000E+00  -1.03430048269298E-18   5.13064623185626E-09   5.13064623082196E-09
     -4.51843631677717E-15  -2.11771747599451E+01  -2.11771747599400E+01   0.00000000000000E+00   0.00000000000000E+00
     -2.29648853266879E-17  -5.13064690044885E-09  -5.13064692341373E-09  -2.28317251929377E-15
      4.33543495198903E-01
      8.00000000000000E-01   8.00000000000000E-01   0.00000000000000E+00   0.00000000000000E+00   6.26413217058779E-16
     -4.43303946481769E-18   6.21980177593962E-16   6.79742407917755E-15   0.00000000000000E+00  -8.11053320858506E-12
      0.00000000000000E+00   0.00000000000000E+00  -1.03383542384101E-18   8.11048722060140E-09   8.11048721956757E-09
     -4.49949701183550E-15  -2.16771747599451E+01  -2.16771747599370E+01   0.00000000000000E+00   0.00000000000000E+00
     -2.29654082540914E-17  -8.11048781858216E-09  -8.11048784154757E-09  -2.29792706734206E-15
      4.43543495198903E-01
      8.00000000000000E-01   8.00000000000000E-01   0.00000000000000E+00   0.00000000000000E+00   5.53181576746065E-16
     -1.05126202808029E-17   5.42668956465262E-16   6.79533090416108E-15   0.00000000000000E+00  -1.21321387166910E-11
      0.00000000000000E+00   0.00000000000000E+00  -1.03332599820196E-18   1.21321286673429E-08   1.21321286663096E-08
     -4.48187732503008E-15  -2.21771747599451E+01  -2.21771747599330E+01   0.00000000000000E+00   0.00000000000000E+00
     -2.29659600020802E-17  -1.21321291860124E-08  -1.21321292089784E-08  -2.31345357913098E-15
      4.53543495198903E-01
      8.00000000000000E-01   8.00000000000000E-01   0.00000000000000E+00   0.00000000000000E+00   4.90984211675963E-16
      1.12576190156166E-17   5.02241830691580E-16   6.79533038357450E-15   0.00000000000000E+00  -1.72721375897731E-11
      0.00000000000000E+00   0.00000000000000E+00  -1.03275947436283E-18   1.72721113326316E-08   1.72721113315989E-08
     -4.46554072062873E-15  -2.26771747599451E+01  -2.26771747599279E+01   0.00000000000000E+00   0.00000000000000E+00
     -2.29665421224536E-17  -1.72721118108739E-08  -1.72721118338404E-08  -2.32978966294576E-15
      4.63543495198903E-01
      8.00000000000000E-01   8.00000000000000E-01   0.00000000000000E+00   0.00000000000000E+00   4.38121232962097E-16
     -5.47625116278083E-18   4.32644981799317E-16   6.79734416546009E-15   0.00000000000000E+00  -2.35552360621400E-11