DF-ISE text

Info {
  version   = 1.0
  type      = xyplot
  datasets  = [
    "time"
    "Ntop OuterVoltage" "Ntop InnerVoltage" "Ntop QuasiFermiPotential" "Ntop DisplacementCurrent" "Ntop eCurrent"
    "Ntop hCurrent" "Ntop TotalCurrent" "Ntop Charge" "Ptop OuterVoltage" "Ptop InnerVoltage"
    "Ptop QuasiFermiPotential" "Ptop DisplacementCurrent" "Ptop eCurrent" "Ptop hCurrent" "Ptop TotalCurrent"
    "Ptop Charge" "Pbot OuterVoltage" "Pbot InnerVoltage" "Pbot QuasiFermiPotential" "Pbot DisplacementCurrent"
    "Pbot eCurrent" "Pbot hCurrent" "Pbot TotalCurrent" "Pbot Charge" ]
  functions = [
    Time
    OuterVoltage InnerVoltage QuasiFermiPotential DisplacementCurrent eCurrent
    hCurrent TotalCurrent Charge OuterVoltage InnerVoltage
    QuasiFermiPotential DisplacementCurrent eCurrent hCurrent TotalCurrent
    Charge OuterVoltage InnerVoltage QuasiFermiPotential DisplacementCurrent
    eCurrent hCurrent TotalCurrent Charge ]
}

Data {
      1.00000000000000E-03
      8.00000000000000E-01   8.00000000000000E-01   0.00000000000000E+00   0.00000000000000E+00   5.59461664437557E-16
     -1.50010836565265E-19   5.59311653600992E-16   4.12469350864171E-15   0.00000000000000E+00   0.00000000000000E+00
      0.00000000000000E+00   0.00000000000000E+00  -1.03632163616252E-18  -6.61233837941420E-17  -6.71597054303045E-17
     -2.19910935445885E-15  -5.00000000000000E-02  -5.00000000000000E-02   0.00000000000000E+00   0.00000000000000E+00
     -2.29526236896933E-17  -4.69199324480994E-16  -4.92151948170688E-16  -1.92558415418285E-15
      2.91111111111111E-03
      8.00000000000000E-01   8.00000000000000E-01   0.00000000000000E+00   0.00000000000000E+00   5.91083162274851E-16
     -3.21633672016899E-19   5.90761528602834E-16   4.12557458105691E-15   0.00000000000000E+00   0.00000000000000E+00
      0.00000000000000E+00   0.00000000000000E+00  -1.03632163551285E-18  -6.59891677175696E-17  -6.70254893530825E-17
     -2.19910708166719E-15  -1.45555555555556E-01  -1.45555555555555E-01   0.00000000000000E+00   0.00000000000000E+00
     -2.29526526209481E-17  -5.00783386628804E-16  -5.23736039249752E-16  -1.92646749938972E-15
      6.56345679012346E-03
      8.00000000000000E-01   8.00000000000000E-01   0.00000000000000E+00   0.00000000000000E+00   6.47569943703755E-16
     -3.03565155772007E-19   6.47266378547983E-16   4.12725364255302E-15   0.00000000000000E+00   0.00000000000000E+00
      0.00000000000000E+00   0.00000000000000E+00  -1.03632163349804E-18  -6.57589208836256E-17  -6.67952425171237E-17
     -2.19910003385966E-15  -3.28172839506173E-01  -3.28172839506173E-01   0.00000000000000E+00   0.00000000000000E+00
     -2.29527079221237E-17  -5.57518428108735E-16  -5.80471136030859E-16  -1.92815360869337E-15
      1.35434951989026E-02
      8.00000000000000E-01   8.00000000000000E-01   0.00000000000000E+00   0.00000000000000E+00   7.44787921619664E-16
     -4.33220467931381E-19   7.44354701151732E-16   4.13043626033615E-15   0.00000000000000E+00   0.00000000000000E+00
      0.00000000000000E+00   0.00000000000000E+00  -1.03632162424156E-18  -6.53841270281049E-17  -6.64204486523465E-17
     -2.19906765680606E-15  -6.77174759945130E-01  -6.77174759945130E-01   0.00000000000000E+00   0.00000000000000E+00
     -2.29528136050420E-17  -6.54981438894343E-16  -6.77934252499385E-16  -1.93136860353008E-15
      2.35434951989026E-02
      8.00000000000000E-01   8.00000000000000E-01   0.00000000000000E+00   0.00000000000000E+00   8.66863275136843E-16
      5.01574274522208E-19   8.67364849411365E-16   4.13486550566586E-15   0.00000000000000E+00   0.00000000000000E+00
      0.00000000000000E+00   0.00000000000000E+00  -1.03632157787459E-18  -6.49947901424830E-17  -6.60311117203576E-17
     -2.19890554403854E-15  -1.17717475994513E+00  -1.17717475994513E+00   0.00000000000000E+00   0.00000000000000E+00
     -2.29529649589566E-17  -7.78380772732050E-16  -8.01333737691007E-16  -1.93595996162732E-15
      3.35434951989026E-02
      8.00000000000000E-01   8.00000000000000E-01   0.00000000000000E+00   0.00000000000000E+00   9.72391689136824E-16
     -2.31700757475047E-18   9.70074681562073E-16   4.13889630841156E-15   0.00000000000000E+00   0.00000000000000E+00
      0.00000000000000E+00   0.00000000000000E+00  -1.03632141759714E-18  -6.48196707462817E-17  -6.58559921638789E-17
     -2.19834545950603E-15  -1.67717475994513E+00  -1.67717475994513E+00   0.00000000000000E+00   0.00000000000000E+00
     -2.29531166955294E-17  -8.81265572702664E-16  -9.04218689398194E-16  -1.94055084890553E-15
      4.35434951989026E-02
      8.00000000000000E-01   8.00000000000000E-01   0.00000000000000E+00   0.00000000000000E+00   1.05936915678598E-15
     -2.09141765576233E-18   1.05727773913022E-15   4.14195354445390E-15   0.00000000000000E+00   0.00000000000000E+00
      0.00000000000000E+00   0.00000000000000E+00  -1.03632096547397E-18  -6.49728803702431E-17  -6.60092013357171E-17
     -2.19676410852172E-15  -2.17717475994513E+00  -2.17717475994513E+00   0.00000000000000E+00   0.00000000000000E+00
     -2.29532703418389E-17  -9.68315267452663E-16  -9.91268537794502E-16  -1.94518943593217E-15
      5.35434951989026E-02
      8.00000000000000E-01   8.00000000000000E-01   0.00000000000000E+00   0.00000000000000E+00   1.13135447321919E-15
     -4.83610848673639E-19   1.13087086237051E-15   4.14303238333584E-15   0.00000000000000E+00   0.00000000000000E+00
      0.00000000000000E+00   0.00000000000000E+00  -1.03631992666600E-18  -6.56944816935212E-17  -6.67308016201872E-17
     -2.19310801892415E-15  -2.67717475994513E+00  -2.67717475994513E+00   0.00000000000000E+00   0.00000000000000E+00
     -2.29534274774906E-17  -1.04118663327284E-15  -1.06414006075033E-15  -1.94992436441169E-15
      6.35434951989026E-02
      8.00000000000000E-01   8.00000000000000E-01   0.00000000000000E+00   0.00000000000000E+00   1.19093166807754E-15
     -1.87904728373043E-18   1.18905262079381E-15   4.14109801877820E-15   0.00000000000000E+00   0.00000000000000E+00
      0.00000000000000E+00   0.00000000000000E+00  -1.03631803089522E-18  -6.73562967697953E-17  -6.83926148006906E-17
     -2.18630313415242E-15  -3.17717475994513E+00  -3.17717475994513E+00   0.00000000000000E+00   0.00000000000000E+00
     -2.29535893927046E-17  -1.09770641660042E-15  -1.12066000599312E-15  -1.95479488462578E-15
      7.35434951989026E-02
      8.00000000000000E-01   8.00000000000000E-01   0.00000000000000E+00   0.00000000000000E+00   1.23864510868541E-15
     -7.73912141106820E-18   1.23090598727434E-15   4.13601761643854E-15   0.00000000000000E+00   0.00000000000000E+00
      0.00000000000000E+00   0.00000000000000E+00  -1.03631530931971E-18  -7.03531615060530E-17  -7.13894768153727E-17
     -2.17617988256898E-15  -3.67717475994513E+00  -3.67717475994513E+00   0.00000000000000E+00   0.00000000000000E+00
     -2.29537573086160E-17  -1.13656275315035E-15  -1.15951651045897E-15  -1.95983773386955E-15
      8.35434951989026E-02
      8.00000000000000E-01   8.00000000000000E-01   0.00000000000000E+00   0.00000000000000E+00   1.27549228070913E-15
      7.44268090790850E-18   1.28293496161704E-15   4.12861124996438E-15   0.00000000000000E+00   0.00000000000000E+00
      0.00000000000000E+00   0.00000000000000E+00  -1.03631205095072E-18  -7.45866326129187E-17  -7.56229446638694E-17
     -2.16352508059634E-15  -4.17717475994513E+00  -4.17717475994513E+00   0.00000000000000E+00   0.00000000000000E+00
     -2.29539323413295E-17  -1.18435808461184E-15  -1.20731201695317E-15  -1.96508616936803E-15
      9.35434951989026E-02
      8.00000000000000E-01   8.00000000000000E-01   0.00000000000000E+00   0.00000000000000E+00   1.30223010505948E-15
      1.59426980249276E-18   1.30382437486198E-15   4.11970189048073E-15   0.00000000000000E+00   0.00000000000000E+00
      0.00000000000000E+00   0.00000000000000E+00  -1.03630849766768E-18  -7.87586676291694E-17  -7.97949761268371E-17
     -2.14914117115573E-15  -4.67717475994513E+00  -4.67717475994513E+00   0.00000000000000E+00   0.00000000000000E+00
     -2.29541151903701E-17  -1.20107528354477E-15  -1.22402939873514E-15  -1.97056071932499E-15
      1.03543495198903E-01
      8.00000000000000E-01   8.00000000000000E-01   0.00000000000000E+00   0.00000000000000E+00   1.31991181207144E-15
     -3.77240511027895E-18   1.31613940696116E-15   4.10974929931804E-15   0.00000000000000E+00   0.00000000000000E+00
      0.00000000000000E+00   0.00000000000000E+00  -1.03630476860746E-18  -8.12949747416923E-17  -8.23312795102998E-17
     -2.13347949424628E-15  -5.17717475994513E+00  -5.17717475994513E+00   0.00000000000000E+00   0.00000000000000E+00
     -2.29543061556239E-17  -1.21085382129524E-15  -1.23380812745086E-15  -1.97626980507175E-15
      1.13543495198903E-01
      8.00000000000000E-01   8.00000000000000E-01   0.00000000000000E+00   0.00000000000000E+00   1.33131956569649E-15
      1.16733044643823E-18   1.33248689614293E-15   4.09896322582924E-15   0.00000000000000E+00   0.00000000000000E+00
      0.00000000000000E+00   0.00000000000000E+00  -1.03630091505418E-18  -8.21945416060799E-17  -8.32308425211340E-17
     -2.11674799580883E-15  -5.67717475994513E+00  -5.67717475994513E+00   0.00000000000000E+00   0.00000000000000E+00
     -2.29545053180648E-17  -1.22630154830373E-15  -1.24925605362179E-15  -1.98221523002042E-15
      1.23543495198903E-01
      8.00000000000000E-01   8.00000000000000E-01   0.00000000000000E+00   0.00000000000000E+00   1.33922735193520E-15
      2.65737011716385E-19   1.33949308894692E-15   4.08741587116966E-15   0.00000000000000E+00   0.00000000000000E+00
      0.00000000000000E+00   0.00000000000000E+00  -1.03629695905611E-18  -8.21651072500055E-17  -8.32014042090616E-17
     -2.09902039382311E-15  -6.17717475994513E+00  -6.17717475994513E+00   0.00000000000000E+00   0.00000000000000E+00
     -2.29547126487180E-17  -1.23333697208914E-15  -1.25629168473786E-15  -1.98839547734654E-15
      1.33543495198903E-01
      8.00000000000000E-01   8.00000000000000E-01   0.00000000000000E+00   0.00000000000000E+00   1.34525627922417E-15
      2.23677137334661E-17   1.36762399295763E-15   4.07508653245961E-15   0.00000000000000E+00   0.00000000000000E+00
      0.00000000000000E+00   0.00000000000000E+00  -1.03629290870434E-18  -8.16703944812878E-17  -8.27066873899921E-17
     -2.08027958473426E-15  -6.67717475994513E+00  -6.67717475994513E+00   0.00000000000000E+00   0.00000000000000E+00
     -2.29549280493898E-17  -1.26196237751825E-15  -1.28491730556764E-15  -1.99480694772534E-15
      1.43543495198903E-01
      8.00000000000000E-01   8.00000000000000E-01   0.00000000000000E+00   0.00000000000000E+00   1.35021606889835E-15
      2.09781105542314E-17   1.37119417945258E-15   4.06186901210054E-15   0.00000000000000E+00   0.00000000000000E+00
      0.00000000000000E+00   0.00000000000000E+00  -1.03628876333260E-18  -8.09368126414177E-17  -8.19731014047503E-17
     -2.06042478734524E-15  -7.17717475994513E+00  -7.17717475994513E+00   0.00000000000000E+00   0.00000000000000E+00
     -2.29551513610399E-17  -1.26626592668679E-15  -1.28922107804783E-15  -2.00144422475528E-15
      1.53543495198903E-01
      8.00000000000000E-01   8.00000000000000E-01   0.00000000000000E+00   0.00000000000000E+00   1.35452364646926E-15
      1.09807392119603E-17   1.36550438568122E-15   4.04758458804485E-15   0.00000000000000E+00   0.00000000000000E+00
      0.00000000000000E+00   0.00000000000000E+00  -1.03628451678850E-18  -8.00771698419532E-17  -8.11134543587417E-17
     -2.03928415164825E-15  -7.67717475994513E+00  -7.67717475994513E+00   0.00000000000000E+00   0.00000000000000E+00
     -2.29553823754734E-17  -1.26143554894701E-15  -1.28439093132248E-15  -2.00830043639660E-15
      1.63543495198903E-01
      8.00000000000000E-01   8.00000000000000E-01   0.00000000000000E+00   0.00000000000000E+00   1.35839519892257E-15
      1.03552346016987E-17   1.36875043352427E-15   4.03209827460751E-15   0.00000000000000E+00   0.00000000000000E+00
      0.00000000000000E+00   0.00000000000000E+00  -1.03628016719593E-18  -7.91277064522673E-17  -8.01639866194633E-17
     -2.01672832117251E-15  -8.17717475994513E+00  -8.17717475994513E+00   0.00000000000000E+00   0.00000000000000E+00
     -2.29556209260537E-17  -1.26563082597875E-15  -1.28858644690481E-15  -2.01536995343499E-15
      1.73543495198903E-01
      8.00000000000000E-01   8.00000000000000E-01   0.00000000000000E+00   0.00000000000000E+00   1.36189152427961E-15
      1.36688119287385E-17   1.37556033620835E-15   4.01558169422461E-15   0.00000000000000E+00   0.00000000000000E+00
      0.00000000000000E+00   0.00000000000000E+00  -1.03627573506486E-18  -7.81060864677107E-17  -7.91423622027755E-17
     -1.99292729476936E-15  -8.67717475994513E+00  -8.67717475994513E+00   0.00000000000000E+00   0.00000000000000E+00
     -2.29558670911966E-17  -1.27346210691438E-15  -1.29641797400558E-15  -2.02265439945525E-15
      1.83543495198903E-01
      8.00000000000000E-01   8.00000000000000E-01   0.00000000000000E+00   0.00000000000000E+00   1.36499369451389E-15
     -1.23682558262940E-17   1.35262543868759E-15   3.99852310033149E-15   0.00000000000000E+00   0.00000000000000E+00
      0.00000000000000E+00   0.00000000000000E+00  -1.03627126080178E-18  -7.68359415682643E-17  -7.78722128290661E-17
     -1.96836017426299E-15  -9.17717475994513E+00  -9.17717475994513E+00   0.00000000000000E+00   0.00000000000000E+00
     -2.29561212054706E-17  -1.25179710465306E-15  -1.27475322585853E-15  -2.03016292606850E-15
      1.93543495198903E-01
      8.00000000000000E-01   8.00000000000000E-01   0.00000000000000E+00   0.00000000000000E+00   1.36765246292785E-15
      1.16692337421705E-17   1.37932169667002E-15   3.98135041240477E-15   0.00000000000000E+00   0.00000000000000E+00
      0.00000000000000E+00   0.00000000000000E+00  -1.03626677682516E-18  -7.47665040546419E-17  -7.58027708314671E-17
     -1.94344673861698E-15  -9.67717475994513E+00  -9.67717475994513E+00   0.00000000000000E+00   0.00000000000000E+00
     -2.29563835718578E-17  -1.28056254226669E-15  -1.30351892583855E-15  -2.03790367378778E-15
      2.03543495198903E-01
      8.00000000000000E-01   8.00000000000000E-01   0.00000000000000E+00   0.00000000000000E+00   1.36982131287417E-15
     -5.84882672529071E-18   1.36397248614888E-15   3.96427469796385E-15   0.00000000000000E+00   0.00000000000000E+00
      0.00000000000000E+00   0.00000000000000E+00  -1.03626228296600E-18  -6.98624257661882E-17  -7.08986880491542E-17
     -1.91839457980956E-15  -1.01771747599451E+01  -1.01771747599451E+01   0.00000000000000E+00   0.00000000000000E+00
     -2.29566543374089E-17  -1.27011714376232E-15  -1.29307379809973E-15  -2.04588011815428E-15
      2.13543495198903E-01
      8.00000000000000E-01   8.00000000000000E-01   0.00000000000000E+00   0.00000000000000E+00   1.37143915093297E-15
     -8.87589140353977E-19   1.37055156179261E-15   3.94737571210529E-15   0.00000000000000E+00   0.00000000000000E+00
      0.00000000000000E+00   0.00000000000000E+00  -1.03625782314129E-18  -5.47113677286266E-17  -5.57476255517679E-17
     -1.89328282848523E-15  -1.06771747599451E+01  -1.06771747599451E+01   0.00000000000000E+00   0.00000000000000E+00
     -2.29569335537901E-17  -1.29184700268706E-15  -1.31480393624085E-15  -2.05409288362006E-15
      2.23543495198903E-01
      8.00000000000000E-01   8.00000000000000E-01   0.00000000000000E+00   0.00000000000000E+00   1.37246819081556E-15
     -1.63554578287417E-17   1.35611273298682E-15   3.93068124652875E-15   0.00000000000000E+00   0.00000000000000E+00
      0.00000000000000E+00   0.00000000000000E+00  -1.03625337134112E-18  -3.02953932409168E-18  -4.06579269543280E-18
     -1.86813977754119E-15  -1.11771747599451E+01  -1.11771747599451E+01   0.00000000000000E+00   0.00000000000000E+00
     -2.29572212353454E-17  -1.32908971905604E-15  -1.35204694029138E-15  -2.06254146898755E-15
      2.33543495198903E-01
      8.00000000000000E-01   8.00000000000000E-01   0.00000000000000E+00   0.00000000000000E+00   1.37297454488797E-15
     -1.11413241744765E-18   1.37186041247052E-15   3.91420107400024E-15   0.00000000000000E+00   0.00000000000000E+00
      0.00000000000000E+00   0.00000000000000E+00  -1.03624892953394E-18   1.75600428448978E-16   1.74564179519444E-16
     -1.84297609283353E-15  -1.16771747599451E+01  -1.16771747599451E+01   0.00000000000000E+00   0.00000000000000E+00
     -2.29575173838412E-17  -1.52346707460613E-15  -1.54642459198997E-15  -2.07122498116670E-15
      2.43543495198903E-01
      8.00000000000000E-01   8.00000000000000E-01   0.00000000000000E+00   0.00000000000000E+00   1.37311067974915E-15
      1.08371369476766E-17   1.38394781669683E-15   3.89793896407539E-15   0.00000000000000E+00   0.00000000000000E+00
      0.00000000000000E+00   0.00000000000000E+00  -1.03624449446437E-18   7.81887182840993E-16   7.80850938346529E-16
     -1.81779657598208E-15  -1.21771747599451E+01  -1.21771747599451E+01   0.00000000000000E+00   0.00000000000000E+00
     -2.29578219970060E-17  -2.14184093304636E-15  -2.16479875504336E-15  -2.08014238809330E-15
      2.53543495198903E-01
      8.00000000000000E-01   8.00000000000000E-01   0.00000000000000E+00   0.00000000000000E+00   1.37301941422458E-15
      6.03626274340643E-18   1.37905567696799E-15   3.88189687638337E-15   0.00000000000000E+00   0.00000000000000E+00
      0.00000000000000E+00   0.00000000000000E+00  -1.03624006324609E-18   2.78078998062401E-15   2.77975374056076E-15
     -1.79260427547609E-15  -1.26771747599451E+01  -1.26771747599451E+01   0.00000000000000E+00   0.00000000000000E+00
     -2.29581350712955E-17  -4.13585128245746E-15  -4.15880941752876E-15  -2.08929260090728E-15
      2.63543495198903E-01
      8.00000000000000E-01   8.00000000000000E-01   0.00000000000000E+00   0.00000000000000E+00   1.37278553776916E-15
      1.46819501060128E-17   1.38746748787518E-15   3.86607656874897E-15   0.00000000000000E+00   0.00000000000000E+00
      0.00000000000000E+00   0.00000000000000E+00  -1.03623568596154E-18   9.15718284360149E-15   9.15614660791553E-15
     -1.76740206802502E-15  -1.31771747599451E+01  -1.31771747599451E+01   0.00000000000000E+00   0.00000000000000E+00
     -2.29584566027971E-17  -1.05206556391879E-14  -1.05436140957907E-14  -2.09867450072395E-15
      2.73543495198903E-01
      8.00000000000000E-01   8.00000000000000E-01   0.00000000000000E+00   0.00000000000000E+00   1.37243946272393E-15
      1.43748323298878E-18   1.37387694595692E-15   3.85048038939787E-15   0.00000000000000E+00   0.00000000000000E+00
      0.00000000000000E+00   0.00000000000000E+00  -1.03623124118451E-18   2.88052413927153E-14   2.88042051614742E-14
     -1.74219343999299E-15  -1.36771747599451E+01  -1.36771747599451E+01   0.00000000000000E+00   0.00000000000000E+00
     -2.29587865875784E-17  -3.01551233208435E-14  -3.01780821074311E-14  -2.10828694940487E-15
      2.83543495198903E-01
      8.00000000000000E-01   8.00000000000000E-01   0.00000000000000E+00   0.00000000000000E+00   1.37196538556072E-15
     -1.95577296587556E-17   1.35240765590196E-15   3.83511186718249E-15   0.00000000000000E+00  -9.18447372075268E-17
      0.00000000000000E+00   0.00000000000000E+00  -1.03622685760045E-18   8.72386554189510E-14   8.72376191920934E-14
     -1.71698306761807E-15  -1.41771747599451E+01  -1.41771747599451E+01   0.00000000000000E+00   0.00000000000000E+00
     -2.29591250220236E-17  -8.85670677229733E-14  -8.85900268479954E-14  -2.11812879956440E-15
      2.93543495198903E-01
      8.00000000000000E-01   8.00000000000000E-01   0.00000000000000E+00   0.00000000000000E+00   1.37128874833695E-15
     -1.89779183039276E-17   1.35231083003302E-15   3.81997634956142E-15   0.00000000000000E+00  -2.75534211622580E-16
      0.00000000000000E+00   0.00000000000000E+00  -1.03622243069457E-18   2.54856390970936E-13   2.54855354748506E-13
     -1.69177743532085E-15  -1.46771747599451E+01  -1.46771747599451E+01   0.00000000000000E+00   0.00000000000000E+00
     -2.29594719035058E-17  -2.56184706106635E-13  -2.56207665578538E-13  -2.12819891424057E-15
      3.03543495198903E-01
      8.00000000000000E-01   8.00000000000000E-01   0.00000000000000E+00   0.00000000000000E+00   1.37022802951240E-15
      2.12481288698883E-17   1.39147615838229E-15   3.80508184406357E-15   0.00000000000000E+00  -7.34757897660214E-16
      0.00000000000000E+00   0.00000000000000E+00  -1.03621698111860E-18   7.18319312488219E-13   7.18318276271238E-13
     -1.66658563197045E-15  -1.51771747599451E+01  -1.51771747599451E+01   0.00000000000000E+00   0.00000000000000E+00
     -2.29598272319565E-17  -7.19686792602386E-13  -7.19709752429618E-13  -2.13849621209311E-15
      3.13543495198903E-01
      8.00000000000000E-01   8.00000000000000E-01   0.00000000000000E+00   0.00000000000000E+00   1.36837986381191E-15
     -3.50805913368328E-18   1.36487180467823E-15   3.79044023725629E-15   0.00000000000000E+00  -1.92873948135806E-15
      0.00000000000000E+00   0.00000000000000E+00  -1.03621254657268E-18   1.95263268962045E-12   1.95263165340790E-12
     -1.64142046652254E-15  -1.56771747599451E+01  -1.56771747599451E+01   0.00000000000000E+00   0.00000000000000E+00
     -2.29601910134739E-17  -1.95397356502158E-12  -1.95399652521259E-12  -2.14901977073374E-15
      3.23543495198903E-01
      8.00000000000000E-01   8.00000000000000E-01   0.00000000000000E+00   0.00000000000000E+00   1.36487100986851E-15
      2.63849705304477E-17   1.39125598039895E-15   3.77606915968697E-15   0.00000000000000E+00  -5.14330528362150E-15
      0.00000000000000E+00   0.00000000000000E+00  -1.03620605539830E-18   5.11607004872956E-12   5.11606901252350E-12
     -1.61630010375020E-15  -1.61771747599451E+01  -1.61771747599451E+01   0.00000000000000E+00   0.00000000000000E+00
     -2.29605632683702E-17  -5.11743730794065E-12  -5.11746026850392E-12  -2.15976905593677E-15
      3.33543495198903E-01
      8.00000000000000E-01   8.00000000000000E-01   0.00000000000000E+00   0.00000000000000E+00   1.35787363512153E-15
      2.30562606695162E-17   1.38092989579105E-15   3.76199493725489E-15   0.00000000000000E+00  -1.29501079462613E-14
      0.00000000000000E+00   0.00000000000000E+00  -1.03619422722615E-18   1.29092124319392E-11   1.29092113957450E-11
     -1.59125052789089E-15  -1.66771747599451E+01  -1.66771747599451E+01   0.00000000000000E+00   0.00000000000000E+00
     -2.29609440483545E-17  -1.29105693646967E-11  -1.29105923256408E-11  -2.17074440936399E-15
      3.43543495198903E-01
      8.00000000000000E-01   8.00000000000000E-01   0.00000000000000E+00   0.00000000000000E+00   1.34379995998081E-15
      2.81727407177367E-17   1.37197270069855E-15   3.74825730911305E-15   0.00000000000000E+00  -3.13190553877666E-14
      0.00000000000000E+00   0.00000000000000E+00  -1.03616937301031E-18   3.13342435090093E-11   3.13342424728400E-11
     -1.56630927650847E-15  -1.71771747599451E+01  -1.71771747599451E+01   0.00000000000000E+00   0.00000000000000E+00
     -2.29613334713191E-17  -3.13355914842074E-11  -3.13356144455408E-11  -2.18194803260459E-15
      3.53543495198903E-01
      8.00000000000000E-01   8.00000000000000E-01   0.00000000000000E+00   0.00000000000000E+00   1.31637990116646E-15
     -2.13338795674369E-18   1.31424651320971E-15   3.73491680655543E-15   0.00000000000000E+00  -7.30165660799838E-14
      0.00000000000000E+00   0.00000000000000E+00  -1.03611473364650E-18   7.30504040918030E-11   7.30504030556882E-11
     -1.54153096301435E-15  -1.76771747599451E+01  -1.76771747599451E+01   0.00000000000000E+00   0.00000000000000E+00
     -2.29617317871555E-17  -7.30516943404696E-11  -7.30517173022014E-11  -2.19338584354108E-15
      3.63543495198903E-01
      8.00000000000000E-01   8.00000000000000E-01   0.00000000000000E+00   0.00000000000000E+00   1.26677391809279E-15
     -8.67165137257089E-18   1.25810226672022E-15   3.72206556815427E-15   0.00000000000000E+00  -1.63208098017775E-13
      0.00000000000000E+00   0.00000000000000E+00  -1.03600134149114E-18   1.63223380703164E-10   1.63223379667163E-10
     -1.51699488477948E-15  -1.81771747599451E+01  -1.81771747599450E+01   0.00000000000000E+00   0.00000000000000E+00
     -2.29621394919145E-17  -1.63224614807291E-10  -1.63224637769430E-10  -2.20507068337478E-15
      3.73543495198903E-01
      8.00000000000000E-01   8.00000000000000E-01   0.00000000000000E+00   0.00000000000000E+00   1.18708406558033E-15
      3.95142719348187E-17   1.22659833751515E-15   3.70984123419607E-15   0.00000000000000E+00  -3.48550777702564E-13
      0.00000000000000E+00   0.00000000000000E+00  -1.03579364622803E-18   3.48533959775610E-10   3.48533958739816E-10
     -1.49281402072157E-15  -1.86771747599451E+01  -1.86771747599448E+01   0.00000000000000E+00   0.00000000000000E+00
     -2.29625575029162E-17  -3.48535162375598E-10  -3.48535185338155E-10  -2.21702721347449E-15
      3.83543495198903E-01
      8.00000000000000E-01   8.00000000000000E-01   0.00000000000000E+00   0.00000000000000E+00   1.07755765037220E-15
      2.33089469078122E-17   1.10086659728001E-15   3.69844048041394E-15   0.00000000000000E+00  -7.08582147556069E-13
      0.00000000000000E+00   0.00000000000000E+00  -1.03547147434806E-18   7.08627834518563E-10   7.08627833483092E-10
     -1.46914240764752E-15  -1.91771747599451E+01  -1.91771747599444E+01   0.00000000000000E+00   0.00000000000000E+00
     -2.29629873806353E-17  -7.08628911386693E-10  -7.08628934349680E-10  -2.22929807276641E-15
      3.93543495198903E-01
      8.00000000000000E-01   8.00000000000000E-01   0.00000000000000E+00   0.00000000000000E+00   9.50333099356493E-16
      1.77730461696119E-18   9.52110403973454E-16   3.68812368987420E-15   0.00000000000000E+00  -1.36619046596196E-12
      0.00000000000000E+00   0.00000000000000E+00  -1.03505016555744E-18   1.36614602606406E-09   1.36614602502901E-09
     -1.44617454113573E-15  -1.96771747599451E+01  -1.96771747599438E+01   0.00000000000000E+00   0.00000000000000E+00
     -2.29634315221586E-17  -1.36614695417598E-09  -1.36614697713941E-09  -2.24194914873846E-15
      4.03543495198903E-01
      8.00000000000000E-01   8.00000000000000E-01   0.00000000000000E+00   0.00000000000000E+00   8.22752068761855E-16
     -2.42549161862623E-17   7.98497152575593E-16   3.67919875552036E-15   0.00000000000000E+00  -2.48770655200307E-12
      0.00000000000000E+00   0.00000000000000E+00  -1.03456787790291E-18   2.48772106241682E-09   2.48772106138225E-09
     -1.42412894302954E-15  -2.01771747599451E+01  -2.01771747599427E+01   0.00000000000000E+00   0.00000000000000E+00
     -2.29638931789170E-17  -2.48772183691552E-09  -2.48772185987941E-09  -2.25506981249082E-15
      4.13543495198903E-01
      8.00000000000000E-01   8.00000000000000E-01   0.00000000000000E+00   0.00000000000000E+00   7.07252748481647E-16
     -3.64124880320015E-19   7.06888623601327E-16   3.67197774567465E-15   0.00000000000000E+00  -4.26848416171981E-12
      0.00000000000000E+00   0.00000000000000E+00  -1.03405334677383E-18   4.26848910206790E-09   4.26848910103384E-09
     -1.40321357747831E-15  -2.06771747599451E+01  -2.06771747599409E+01   0.00000000000000E+00   0.00000000000000E+00
     -2.29643761560638E-17  -4.26848978495806E-09  -4.26848980792244E-09  -2.26876416819635E-15
      4.23543495198903E-01
      8.00000000000000E-01   8.00000000000000E-01   0.00000000000000E+00   0.00000000000000E+00   6.08202992731817E-16
      1.12266215863967E-17   6.19429614318214E-16   3.66671807240437E-15   0.00000000000000E+00  -6.90121355377356E-12
      0.00000000000000E+00   0.00000000000000E+00  -1.03351179234051E-18   6.90117246123038E-09   6.90117246019687E-09
     -1.38358398405290E-15  -2.11771747599451E+01  -2.11771747599382E+01   0.00000000000000E+00   0.00000000000000E+00
     -2.29648842163047E-17  -6.90117305666157E-09  -6.90117307962646E-09  -2.28313408835146E-15
      4.33543495198903E-01
      8.00000000000000E-01   8.00000000000000E-01   0.00000000000000E+00   0.00000000000000E+00   5.25085325204453E-16
      8.76451233801760E-18   5.33849837542471E-16   3.66357566743994E-15   0.00000000000000E+00  -1.05428573840520E-11
      0.00000000000000E+00   0.00000000000000E+00  -1.03293280859362E-18   1.05428121297827E-08   1.05428121287498E-08
     -1.36531438469362E-15  -2.16771747599451E+01  -2.16771747599346E+01   0.00000000000000E+00   0.00000000000000E+00
     -2.29654204419169E-17  -1.05428126396340E-08  -1.05428126625995E-08  -2.29826128274633E-15
      4.43543495198903E-01
      8.00000000000000E-01   8.00000000000000E-01   0.00000000000000E+00   0.00000000000000E+00   4.56007244663185E-16
      4.91982425373701E-18   4.60927068916922E-16   3.66259180419571E-15   0.00000000000000E+00  -1.52948122424322E-11
      0.00000000000000E+00   0.00000000000000E+00  -1.03230198594958E-18   1.52948279041175E-08   1.52948279030852E-08
     -1.34839495751512E-15  -2.21771747599451E+01  -2.21771747599298E+01   0.00000000000000E+00   0.00000000000000E+00
     -2.29659868554440E-17  -1.52948283410461E-08  -1.52948283640121E-08  -2.31419684668059E-15
      4.53543495198903E-01
      8.00000000000000E-01   8.00000000000000E-01   0.00000000000000E+00   0.00000000000000E+00   3.98985930710595E-16
     -2.46646113022345E-17   3.74321319408360E-16   3.66371218980272E-15   0.00000000000000E+00  -2.12018983606715E-11
      0.00000000000000E+00   0.00000000000000E+00  -1.03160653979681E-18   2.12018801754078E-08   2.12018801743762E-08
     -1.33275114374366E-15  -2.26771747599451E+01  -2.26771747599239E+01   0.00000000000000E+00   0.00000000000000E+00
     -2.29665844011759E-17  -2.12018805257306E-08  -2.12018805486972E-08  -2.33096104605905E-15
      4.63543495198903E-01
      8.00000000000000E-01   8.00000000000000E-01   0.00000000000000E+00   0.00000000000000E+00   3.52078238977199E-16
     -1.24034173433228E-18   3.50837897242867E-16   3.66682081209231E-15   0.00000000000000E+00  -2.82635646703466E-11