DF-ISE text

Info {
  version   = 1.0
  type      = xyplot
  datasets  = [
    "time"
    "Ntop OuterVoltage" "Ntop InnerVoltage" "Ntop QuasiFermiPotential" "Ntop DisplacementCurrent" "Ntop eCurrent"
    "Ntop hCurrent" "Ntop TotalCurrent" "Ntop Charge" "Ptop OuterVoltage" "Ptop InnerVoltage"
    "Ptop QuasiFermiPotential" "Ptop DisplacementCurrent" "Ptop eCurrent" "Ptop hCurrent" "Ptop TotalCurrent"
    "Ptop Charge" "Pbot OuterVoltage" "Pbot InnerVoltage" "Pbot QuasiFermiPotential" "Pbot DisplacementCurrent"
    "Pbot eCurrent" "Pbot hCurrent" "Pbot TotalCurrent" "Pbot Charge" ]
  functions = [
    Time
    OuterVoltage InnerVoltage QuasiFermiPotential DisplacementCurrent eCurrent
    hCurrent TotalCurrent Charge OuterVoltage InnerVoltage
    QuasiFermiPotential DisplacementCurrent eCurrent hCurrent TotalCurrent
    Charge OuterVoltage InnerVoltage QuasiFermiPotential DisplacementCurrent
    eCurrent hCurrent TotalCurrent Charge ]
}

Data {
      0.00000000000000E+00
      0.00000000000000E+00   0.00000000000000E+00   0.00000000000000E+00   0.00000000000000E+00  -1.54192771075334E-26
     -4.30864516366663E-18  -4.30864517908591E-18   2.90715628935978E-15   0.00000000000000E+00   0.00000000000000E+00
      0.00000000000000E+00   0.00000000000000E+00   1.54336349057254E-26  -5.89014300497803E-20  -5.89014146161454E-20
     -9.89453108333939E-16   0.00000000000000E+00   0.00000000000000E+00   0.00000000000000E+00   0.00000000000000E+00
     -1.43703321366242E-29   4.36754659371642E-18   4.36754659370205E-18  -1.91770318102584E-15
      0.00000000000000E+00
      0.00000000000000E+00   0.00000000000000E+00   0.00000000000000E+00   0.00000000000000E+00  -7.66557778854903E-28
     -7.48578141061178E-19  -7.48578141827736E-19   2.90715628946316E-15   0.00000000000000E+00   0.00000000000000E+00
      0.00000000000000E+00   0.00000000000000E+00   7.57905952706896E-28   6.31487342470932E-21   6.31487418261528E-21
     -9.89453108333948E-16   0.00000000000000E+00   0.00000000000000E+00   0.00000000000000E+00   0.00000000000000E+00
      9.18695630698690E-30   7.42263267635934E-19   7.42263267645121E-19  -1.91770318112922E-15
      1.00000000000000E-02
      8.00000000000000E-03   7.99999999999997E-03   0.00000000000000E+00   0.00000000000000E+00   2.77150503248930E-17
      1.74377323167858E-19   2.78894276480609E-17   2.91413210061280E-15   0.00000000000000E+00   0.00000000000000E+00
      0.00000000000000E+00   0.00000000000000E+00  -2.79512094890957E-19  -2.12849144157840E-18  -2.40800353646936E-18
     -9.96354611025176E-16   0.00000000000000E+00   0.00000000000000E+00   0.00000000000000E+00   0.00000000000000E+00
     -6.88169980356066E-18  -1.85997243080308E-17  -2.54814241115915E-17  -1.91777748958763E-15
      2.37355555555556E-02
      1.89884444444444E-02   1.89884444444444E-02   0.00000000000000E+00   0.00000000000000E+00   5.80965950568245E-17
      1.69418228833772E-18   5.97907773451622E-17   2.92364938328472E-15   0.00000000000000E+00   0.00000000000000E+00
      0.00000000000000E+00   0.00000000000000E+00  -5.45529546035194E-19  -4.53106036416967E-18  -5.07658991020487E-18
     -1.00576984060228E-15   0.00000000000000E+00   0.00000000000000E+00   0.00000000000000E+00   0.00000000000000E+00
     -1.33730849339029E-17  -4.13411025010545E-17  -5.47141874349574E-17  -1.91787954268245E-15
      4.28523965432099E-02
      3.42819172345679E-02   3.42819172345679E-02   0.00000000000000E+00   0.00000000000000E+00   9.00020356754462E-17
     -9.81534135495253E-19   8.90205015399510E-17   2.93677560512023E-15   0.00000000000000E+00   0.00000000000000E+00
      0.00000000000000E+00   0.00000000000000E+00  -7.68468772888044E-19  -7.26906581816316E-18  -8.03753459105121E-18
     -1.01875404949764E-15   0.00000000000000E+00   0.00000000000000E+00   0.00000000000000E+00   0.00000000000000E+00
     -1.86432158849861E-17  -6.23397510639136E-17  -8.09829669488997E-17  -1.91802155562259E-15
      6.94587910111385E-02
      5.55670328089108E-02   5.55670328089109E-02   0.00000000000000E+00   0.00000000000000E+00   1.21983583237054E-16
     -8.63158208917452E-19   1.21120425028136E-16   2.95482327039137E-15   0.00000000000000E+00   0.00000000000000E+00
      0.00000000000000E+00   0.00000000000000E+00  -9.21699766618890E-19  -1.01564182624324E-17  -1.10781180290513E-17
     -1.03660409832045E-15   0.00000000000000E+00   0.00000000000000E+00   0.00000000000000E+00   0.00000000000000E+00
     -2.18522745247812E-17  -8.81900324743037E-17  -1.10042306999085E-16  -1.91821917207092E-15
      1.06488979578391E-01
      8.51911836627130E-02   8.51911836627130E-02   0.00000000000000E+00   0.00000000000000E+00   1.54101915024128E-16
     -5.56083220435171E-19   1.53545831803693E-16   2.97953974258290E-15   0.00000000000000E+00   0.00000000000000E+00
      0.00000000000000E+00   0.00000000000000E+00  -1.00154385495350E-18  -1.23931428852886E-17  -1.33946867402421E-17
     -1.06104557899661E-15   0.00000000000000E+00   0.00000000000000E+00   0.00000000000000E+00   0.00000000000000E+00
     -2.28943282574993E-17  -1.17256816805952E-16  -1.40151145063451E-16  -1.91849416358629E-15
      1.58026773133214E-01
      1.26421418506571E-01   1.26421418506572E-01   0.00000000000000E+00   0.00000000000000E+00   1.89096929965681E-16
      3.22744339130043E-19   1.89419674304811E-16   3.01322382057736E-15   0.00000000000000E+00   0.00000000000000E+00
      0.00000000000000E+00   0.00000000000000E+00  -1.02981674874268E-18  -1.74034806959563E-17  -1.84332974446990E-17
     -1.09434698426466E-15   0.00000000000000E+00   0.00000000000000E+00   0.00000000000000E+00   0.00000000000000E+00
     -2.29523293908484E-17  -1.48034047469263E-16  -1.70986376860112E-16  -1.91887683631269E-15
      2.28816795791517E-01
      1.83053436633213E-01   1.83053436633213E-01   0.00000000000000E+00   0.00000000000000E+00   2.29988398383472E-16
      2.05794470527527E-19   2.30194192853999E-16   3.05827112877749E-15   0.00000000000000E+00   0.00000000000000E+00
      0.00000000000000E+00   0.00000000000000E+00  -1.03566863829175E-18  -2.20160710533668E-17  -2.30517396916585E-17
     -1.13886871948239E-15   0.00000000000000E+00   0.00000000000000E+00   0.00000000000000E+00   0.00000000000000E+00
     -2.29524575025074E-17  -1.84189995659834E-16  -2.07142453162341E-16  -1.91940240929510E-15
      3.26050824691732E-01
      2.60840659753386E-01   2.60840659753386E-01   0.00000000000000E+00   0.00000000000000E+00   2.79236467668796E-16
     -2.23699516845267E-21   2.79234230673628E-16   3.11812922224290E-15   0.00000000000000E+00   0.00000000000000E+00
      0.00000000000000E+00   0.00000000000000E+00  -1.03625225220517E-18  -2.78749075877878E-17  -2.89111598399930E-17
     -1.19800495469924E-15   0.00000000000000E+00   0.00000000000000E+00   0.00000000000000E+00   0.00000000000000E+00
     -2.29524454093457E-17  -2.27370625424289E-16  -2.50323070833635E-16  -1.92012426754366E-15
      4.26050824691732E-01
      3.40840659753386E-01   3.40840659753386E-01   0.00000000000000E+00   0.00000000000000E+00   3.24652461690061E-16
      7.62748573219106E-19   3.25415210263280E-16   3.17756693142109E-15   0.00000000000000E+00   0.00000000000000E+00
      0.00000000000000E+00   0.00000000000000E+00  -1.03627842635090E-18  -3.34677733254028E-17  -3.45040517517537E-17
     -1.25670034746246E-15   0.00000000000000E+00   0.00000000000000E+00   0.00000000000000E+00   0.00000000000000E+00
     -2.29524698752168E-17  -2.67958688636309E-16  -2.90911158511526E-16  -1.92086658395862E-15
      5.26050824691732E-01
      4.20840659753386E-01   4.20840659753385E-01   0.00000000000000E+00   0.00000000000000E+00   3.66527256769360E-16
     -3.87920603696023E-19   3.66139336165664E-16   3.23509381071052E-15   0.00000000000000E+00   0.00000000000000E+00
      0.00000000000000E+00   0.00000000000000E+00  -1.03628755037498E-18  -3.85737660283924E-17  -3.96100535787674E-17
     -1.31348506159786E-15   0.00000000000000E+00   0.00000000000000E+00   0.00000000000000E+00   0.00000000000000E+00
     -2.29524939495554E-17  -3.03576788637342E-16  -3.26529282586897E-16  -1.92160874911266E-15
      6.26050824691732E-01
      5.00840659753386E-01   5.00840659753386E-01   0.00000000000000E+00   0.00000000000000E+00   4.05883377594324E-16
      5.97273998662731E-19   4.06480651592987E-16   3.29085673192371E-15   0.00000000000000E+00   0.00000000000000E+00
      0.00000000000000E+00   0.00000000000000E+00  -1.03629604830066E-18  -4.35551253060745E-17  -4.45914213543751E-17
     -1.36850605636359E-15   0.00000000000000E+00   0.00000000000000E+00   0.00000000000000E+00   0.00000000000000E+00
     -2.29525180918761E-17  -3.38936712146736E-16  -3.61889230238612E-16  -1.92235067556012E-15
      7.26050824691732E-01
      5.80840659753386E-01   5.80840659753386E-01   0.00000000000000E+00   0.00000000000000E+00   4.43280527823915E-16
     -4.71529323549959E-19   4.42808998500365E-16   3.34491435271972E-15   0.00000000000000E+00   0.00000000000000E+00
      0.00000000000000E+00   0.00000000000000E+00  -1.03630406775932E-18  -4.83747209330620E-17  -4.94110250008213E-17
     -1.42182207090474E-15   0.00000000000000E+00   0.00000000000000E+00   0.00000000000000E+00   0.00000000000000E+00
     -2.29525422615793E-17  -3.70445431237964E-16  -3.93397973499543E-16  -1.92309228181498E-15
      8.26050824691732E-01
      6.60840659753386E-01   6.60840659753386E-01   0.00000000000000E+00   0.00000000000000E+00   4.79014370044053E-16
      9.02608817168399E-20   4.79104630925770E-16   3.39724149107327E-15   0.00000000000000E+00   0.00000000000000E+00
      0.00000000000000E+00   0.00000000000000E+00  -1.03631164157738E-18  -5.31400766888434E-17  -5.41763883304207E-17
     -1.47340799371380E-15   0.00000000000000E+00   0.00000000000000E+00   0.00000000000000E+00   0.00000000000000E+00
     -2.29525664505859E-17  -4.01975676144763E-16  -4.24928242595349E-16  -1.92383349735947E-15
      9.26050824691732E-01
      7.40840659753386E-01   7.40840659753386E-01   0.00000000000000E+00   0.00000000000000E+00   5.13324552801694E-16
      1.38612265958285E-18   5.14710675461277E-16   3.44774196326340E-15   0.00000000000000E+00   0.00000000000000E+00
      0.00000000000000E+00   0.00000000000000E+00  -1.03631872108190E-18  -5.79689081372297E-17  -5.90052268583116E-17
     -1.52316770380956E-15   0.00000000000000E+00   0.00000000000000E+00   0.00000000000000E+00   0.00000000000000E+00
     -2.29525906532076E-17  -4.32752857949757E-16  -4.55705448602965E-16  -1.92457425945385E-15
      1.00000000000000E+00
      8.00000000000000E-01   8.00000000000000E-01   0.00000000000000E+00   0.00000000000000E+00   5.37969771837818E-16
     -8.22897622942968E-20   5.37887482075524E-16   3.48384007880480E-15   0.00000000000000E+00   0.00000000000000E+00
      0.00000000000000E+00   0.00000000000000E+00  -1.03632356716732E-18  -6.16853124610762E-17  -6.27216360282435E-17
     -1.55871836156759E-15   0.00000000000000E+00   0.00000000000000E+00   0.00000000000000E+00   0.00000000000000E+00
     -2.29526085566297E-17  -4.52213237490651E-16  -4.75165846047281E-16  -1.92512171723721E-15
}
