DF-ISE text

Info {
  version   = 1.0
  type      = xyplot
  datasets  = [
    "time"
    "Ntop OuterVoltage" "Ntop InnerVoltage" "Ntop QuasiFermiPotential" "Ntop DisplacementCurrent" "Ntop eCurrent"
    "Ntop hCurrent" "Ntop TotalCurrent" "Ntop Charge" "Ptop OuterVoltage" "Ptop InnerVoltage"
    "Ptop QuasiFermiPotential" "Ptop DisplacementCurrent" "Ptop eCurrent" "Ptop hCurrent" "Ptop TotalCurrent"
    "Ptop Charge" "Pbot OuterVoltage" "Pbot InnerVoltage" "Pbot QuasiFermiPotential" "Pbot DisplacementCurrent"
    "Pbot eCurrent" "Pbot hCurrent" "Pbot TotalCurrent" "Pbot Charge" ]
  functions = [
    Time
    OuterVoltage InnerVoltage QuasiFermiPotential DisplacementCurrent eCurrent
    hCurrent TotalCurrent Charge OuterVoltage InnerVoltage
    QuasiFermiPotential DisplacementCurrent eCurrent hCurrent TotalCurrent
    Charge OuterVoltage InnerVoltage QuasiFermiPotential DisplacementCurrent
    eCurrent hCurrent TotalCurrent Charge ]
}

Data {
      0.00000000000000E+00
      0.00000000000000E+00   0.00000000000000E+00   0.00000000000000E+00   0.00000000000000E+00  -2.14817780196549E-25
     -4.49231175646051E-18  -4.49231197127829E-18   3.13244178811330E-15   0.00000000000000E+00   0.00000000000000E+00
      0.00000000000000E+00   0.00000000000000E+00   2.14823652116329E-25   4.94635359097013E-20   4.94637507333534E-20
     -1.21473860709824E-15   0.00000000000000E+00   0.00000000000000E+00   0.00000000000000E+00   0.00000000000000E+00
     -5.88915299677432E-30   4.44284822055082E-18   4.44284822054493E-18  -1.91770318101506E-15
      0.00000000000000E+00
      0.00000000000000E+00   0.00000000000000E+00   0.00000000000000E+00   0.00000000000000E+00   7.63289161758519E-27
     -5.76453407149947E-19  -5.76453399517056E-19   3.13244178821668E-15   0.00000000000000E+00   0.00000000000000E+00
      0.00000000000000E+00   0.00000000000000E+00  -7.63778639445728E-27   6.31020232004930E-21   6.31019468226291E-21
     -1.21473860709825E-15   0.00000000000000E+00   0.00000000000000E+00   0.00000000000000E+00   0.00000000000000E+00
      5.41792905494434E-30   5.70143204829375E-19   5.70143204834793E-19  -1.91770318111844E-15
      1.00000000000000E-02
      8.00000000000000E-03   7.99999999999997E-03   0.00000000000000E+00   0.00000000000000E+00   2.77405816400262E-17
      1.63617905528850E-18   2.93767606953147E-17   3.14354704764198E-15   0.00000000000000E+00   0.00000000000000E+00
      0.00000000000000E+00   0.00000000000000E+00  -2.79511657934917E-19  -2.17430500235241E-18  -2.45381666028732E-18
     -1.22576955806659E-15   0.00000000000000E+00   0.00000000000000E+00   0.00000000000000E+00   0.00000000000000E+00
     -6.88169979069609E-18  -2.00412442443313E-17  -2.69229440350274E-17  -1.91777748957541E-15
      2.37355555555556E-02
      1.89884444444444E-02   1.89884444444444E-02   0.00000000000000E+00   0.00000000000000E+00   5.81532886655578E-17
      2.02312525789283E-19   5.83556011913470E-17   3.15875193559309E-15   0.00000000000000E+00   0.00000000000000E+00
      0.00000000000000E+00   0.00000000000000E+00  -5.45529352454114E-19  -4.66648900127549E-18  -5.21201835372960E-18
     -1.24087239292503E-15   0.00000000000000E+00   0.00000000000000E+00   0.00000000000000E+00   0.00000000000000E+00
     -1.33730849161075E-17  -3.97704979215099E-17  -5.31435828376174E-17  -1.91787954266806E-15
      4.28523965432099E-02
      3.42819172345679E-02   3.42819172345679E-02   0.00000000000000E+00   0.00000000000000E+00   9.00968786621382E-17
     -9.45874875306831E-19   8.91510037868314E-17   3.17982334689353E-15   0.00000000000000E+00   0.00000000000000E+00
      0.00000000000000E+00   0.00000000000000E+00  -7.68469326020199E-19  -7.48562035300917E-18  -8.25408967902937E-18
     -1.26180179128876E-15   0.00000000000000E+00   0.00000000000000E+00   0.00000000000000E+00   0.00000000000000E+00
     -1.86432158701439E-17  -6.22536982376581E-17  -8.08969141078020E-17  -1.91802155560477E-15
      6.94587910111385E-02
      5.55670328089108E-02   5.55670328089109E-02   0.00000000000000E+00   0.00000000000000E+00   1.22125931901490E-16
      1.90974004772130E-18   1.24035671949211E-16   3.20898343779934E-15   0.00000000000000E+00   0.00000000000000E+00
      0.00000000000000E+00   0.00000000000000E+00  -9.21706670793982E-19  -1.08448558746021E-17  -1.17665625453961E-17
     -1.29076426575206E-15   0.00000000000000E+00   0.00000000000000E+00   0.00000000000000E+00   0.00000000000000E+00
     -2.18522745175951E-17  -9.04168348862201E-17  -1.12269109403815E-16  -1.91821917204728E-15
      1.06488979578391E-01
      8.51911836627130E-02   8.51911836627130E-02   0.00000000000000E+00   0.00000000000000E+00   1.54307356880722E-16
     -3.94973167717757E-20   1.54267859563951E-16   3.24926401702307E-15   0.00000000000000E+00   0.00000000000000E+00
      0.00000000000000E+00   0.00000000000000E+00  -1.00154027791507E-18  -1.38791789826959E-17  -1.48807192606110E-17
     -1.33076985347115E-15   0.00000000000000E+00   0.00000000000000E+00   0.00000000000000E+00   0.00000000000000E+00
     -2.28941089782621E-17  -1.16493031325078E-16  -1.39387140303340E-16  -1.91849416355193E-15
      1.57352000808211E-01
      1.25881600646569E-01   1.25881600646569E-01   0.00000000000000E+00   0.00000000000000E+00   1.88978700731742E-16
      2.87195284955219E-19   1.89265896016697E-16   3.30405280971721E-15   0.00000000000000E+00   0.00000000000000E+00
      0.00000000000000E+00   0.00000000000000E+00  -1.02967115114820E-18  -1.77662253561007E-17  -1.87958965072489E-17
     -1.38518098344281E-15   0.00000000000000E+00   0.00000000000000E+00   0.00000000000000E+00   0.00000000000000E+00
     -2.29523266394006E-17  -1.47517672870048E-16  -1.70469999509448E-16  -1.91887182627440E-15
      2.27215186190770E-01
      1.81772148952616E-01   1.81772148952616E-01   0.00000000000000E+00   0.00000000000000E+00   2.29592835604601E-16
     -1.42397930810562E-19   2.29450437673790E-16   3.37835396129743E-15   0.00000000000000E+00   0.00000000000000E+00
      0.00000000000000E+00   0.00000000000000E+00  -1.03563421030599E-18  -2.25417196547611E-17  -2.35773538650671E-17
     -1.45896344273583E-15   0.00000000000000E+00   0.00000000000000E+00   0.00000000000000E+00   0.00000000000000E+00
     -2.29524592018456E-17  -1.82920624606877E-16  -2.05873083808723E-16  -1.91939051856160E-15
      3.23176152601792E-01
      2.58540922081434E-01   2.58540922081434E-01   0.00000000000000E+00   0.00000000000000E+00   2.78642429946373E-16
     -5.25870187994035E-19   2.78116559758379E-16   3.47868366674270E-15   0.00000000000000E+00   0.00000000000000E+00
      0.00000000000000E+00   0.00000000000000E+00  -1.03624932173978E-18  -2.86290207122800E-17  -2.96652700340198E-17
     -1.55858074002468E-15   0.00000000000000E+00   0.00000000000000E+00   0.00000000000000E+00   0.00000000000000E+00
     -2.29524447650987E-17  -2.25498844959260E-16  -2.48451289724359E-16  -1.92010292671802E-15
      4.23176152601792E-01
      3.38540922081434E-01   3.38540922081433E-01   0.00000000000000E+00   0.00000000000000E+00   3.24589105359688E-16
     -6.02512445275591E-19   3.23986592914412E-16   3.58112125539238E-15   0.00000000000000E+00   0.00000000000000E+00
      0.00000000000000E+00   0.00000000000000E+00  -1.03627743277686E-18  -3.45994345872129E-17  -3.56357120199898E-17
     -1.66027600948634E-15   0.00000000000000E+00   0.00000000000000E+00   0.00000000000000E+00   0.00000000000000E+00
     -2.29524691859489E-17  -2.65398411708474E-16  -2.88350880894423E-16  -1.92084524590603E-15
      5.23176152601792E-01
      4.18540922081434E-01   4.18540922081434E-01   0.00000000000000E+00   0.00000000000000E+00   3.67004872088857E-16
     -1.12461851388531E-19   3.66892410237469E-16   3.68134612680273E-15   0.00000000000000E+00   0.00000000000000E+00
      0.00000000000000E+00   0.00000000000000E+00  -1.03628649054980E-18  -4.02519907936928E-17  -4.12882772842426E-17
     -1.75975871091930E-15   0.00000000000000E+00   0.00000000000000E+00   0.00000000000000E+00   0.00000000000000E+00
     -2.29524932560663E-17  -3.02651639697160E-16  -3.25604132953226E-16  -1.92158741588343E-15
      6.23176152601792E-01
      4.98540922081434E-01   4.98540922081434E-01   0.00000000000000E+00   0.00000000000000E+00   4.06871298713980E-16
     -4.63042852348763E-20   4.06824994428745E-16   3.77925963612334E-15   0.00000000000000E+00   0.00000000000000E+00
      0.00000000000000E+00   0.00000000000000E+00  -1.03629486244982E-18  -4.56744518654381E-17  -4.67107467278879E-17
     -1.85693028739763E-15   0.00000000000000E+00   0.00000000000000E+00   0.00000000000000E+00   0.00000000000000E+00
     -2.29525173973318E-17  -3.37161730303525E-16  -3.60114247700857E-16  -1.92232934872570E-15
      7.23176152601792E-01
      5.78540922081434E-01   5.78540922081434E-01   0.00000000000000E+00   0.00000000000000E+00   4.44763745086577E-16
      1.74734296400636E-18   4.46511088050583E-16   3.87471674003049E-15   0.00000000000000E+00   0.00000000000000E+00
      0.00000000000000E+00   0.00000000000000E+00  -1.03630270693554E-18  -5.09472755279189E-17  -5.19835782348545E-17
     -1.95164577851137E-15   0.00000000000000E+00   0.00000000000000E+00   0.00000000000000E+00   0.00000000000000E+00
     -2.29525415662623E-17  -3.71574968249466E-16  -3.94527509815728E-16  -1.92307096151911E-15
      8.23176152601792E-01
      6.58540922081434E-01   6.58540922081434E-01   0.00000000000000E+00   0.00000000000000E+00   4.81038099718874E-16
      2.99184873881069E-19   4.81337284592755E-16   3.96751004787069E-15   0.00000000000000E+00   0.00000000000000E+00
      0.00000000000000E+00   0.00000000000000E+00  -1.03631008091165E-18  -5.62226069452108E-17  -5.72589170261224E-17
     -2.04369786715676E-15   0.00000000000000E+00   0.00000000000000E+00   0.00000000000000E+00   0.00000000000000E+00
     -2.29525657545210E-17  -4.01125801812112E-16  -4.24078367566633E-16  -1.92381218071392E-15
      9.23176152601792E-01
      7.38540922081434E-01   7.38540922081433E-01   0.00000000000000E+00   0.00000000000000E+00   5.16011733398465E-16
      4.60664363740296E-19   5.16472397762206E-16   4.05736836957472E-15   0.00000000000000E+00   0.00000000000000E+00
      0.00000000000000E+00   0.00000000000000E+00  -1.03631688062541E-18  -6.16884626643645E-17  -6.27247795449899E-17
     -2.13281543293297E-15   0.00000000000000E+00   0.00000000000000E+00   0.00000000000000E+00   0.00000000000000E+00
     -2.29525899561664E-17  -4.30795028261049E-16  -4.53747618217216E-16  -1.92455293664175E-15
      1.00000000000000E+00
      8.00000000000000E-01   8.00000000000000E-01   0.00000000000000E+00   0.00000000000000E+00   5.42256661584934E-16
     -7.58744936537956E-19   5.41497916648396E-16   4.12423191913915E-15   0.00000000000000E+00   0.00000000000000E+00
      0.00000000000000E+00   0.00000000000000E+00  -1.03632162218664E-18  -6.61994009263530E-17  -6.72357225485396E-17
     -2.19911027055842E-15   0.00000000000000E+00   0.00000000000000E+00   0.00000000000000E+00   0.00000000000000E+00
     -2.29526085543836E-17  -4.51309585545473E-16  -4.74262194099857E-16  -1.92512164858072E-15
}
