DF-ISE text

Info {
  version   = 1.0
  type      = xyplot
  datasets  = [
    "time"
    "Ntop OuterVoltage" "Ntop InnerVoltage" "Ntop QuasiFermiPotential" "Ntop DisplacementCurrent" "Ntop eCurrent"
    "Ntop hCurrent" "Ntop TotalCurrent" "Ntop Charge" "Ptop OuterVoltage" "Ptop InnerVoltage"
    "Ptop QuasiFermiPotential" "Ptop DisplacementCurrent" "Ptop eCurrent" "Ptop hCurrent" "Ptop TotalCurrent"
    "Ptop Charge" "Pbot OuterVoltage" "Pbot InnerVoltage" "Pbot QuasiFermiPotential" "Pbot DisplacementCurrent"
    "Pbot eCurrent" "Pbot hCurrent" "Pbot TotalCurrent" "Pbot Charge" ]
  functions = [
    Time
    OuterVoltage InnerVoltage QuasiFermiPotential DisplacementCurrent eCurrent
    hCurrent TotalCurrent Charge OuterVoltage InnerVoltage
    QuasiFermiPotential DisplacementCurrent eCurrent hCurrent TotalCurrent
    Charge OuterVoltage InnerVoltage QuasiFermiPotential DisplacementCurrent
    eCurrent hCurrent TotalCurrent Charge ]
}

Data {
      0.00000000000000E+00
      0.00000000000000E+00   0.00000000000000E+00   0.00000000000000E+00   0.00000000000000E+00  -7.72289893449497E-26
     -4.28563542058493E-18  -4.28563549781392E-18   2.99249717874711E-15   0.00000000000000E+00   0.00000000000000E+00
      0.00000000000000E+00   0.00000000000000E+00   7.72280273784477E-26  -7.11527685625931E-20  -7.11526913345657E-20
     -1.07479399773188E-15   0.00000000000000E+00   0.00000000000000E+00   0.00000000000000E+00   0.00000000000000E+00
      9.42257193379865E-31   4.35678818914754E-18   4.35678818914848E-18  -1.91770318101522E-15
      0.00000000000000E+00
      0.00000000000000E+00   0.00000000000000E+00   0.00000000000000E+00   0.00000000000000E+00  -5.69883734431077E-26
      8.99546266623207E-20   8.99545696739473E-20   2.99249717885049E-15   0.00000000000000E+00   0.00000000000000E+00
      0.00000000000000E+00   0.00000000000000E+00   5.69945012069562E-26   1.76222138782446E-20   1.76222708727458E-20
     -1.07479399773190E-15   0.00000000000000E+00   0.00000000000000E+00   0.00000000000000E+00   0.00000000000000E+00
     -5.65373332847365E-30  -1.07576840541039E-19  -1.07576840546693E-19  -1.91770318111860E-15
      1.00000000000000E-02
      8.00000000000000E-03   7.99999999999997E-03   0.00000000000000E+00   0.00000000000000E+00   2.78179487223539E-17
      2.48216579619494E-18   3.03001145185488E-17   3.00125087268644E-15   0.00000000000000E+00   0.00000000000000E+00
      0.00000000000000E+00   0.00000000000000E+00  -2.79511671043785E-19  -2.23707110562487E-18  -2.51658277666866E-18
     -1.08347338311083E-15   0.00000000000000E+00   0.00000000000000E+00   0.00000000000000E+00   0.00000000000000E+00
     -6.88169979252465E-18  -2.09018319493555E-17  -2.77835317418802E-17  -1.91777748957561E-15
      2.37355555555556E-02
      1.89884444444444E-02   1.89884444444444E-02   0.00000000000000E+00   0.00000000000000E+00   5.83217452522767E-17
      7.60443766713540E-19   5.90821890189902E-17   3.01320719994046E-15   0.00000000000000E+00   0.00000000000000E+00
      0.00000000000000E+00   0.00000000000000E+00  -5.45529397977235E-19  -4.84443237225120E-18  -5.38996177022843E-18
     -1.09532765727213E-15   0.00000000000000E+00   0.00000000000000E+00   0.00000000000000E+00   0.00000000000000E+00
     -1.33730849186909E-17  -4.03191423300709E-17  -5.36922272487618E-17  -1.91787954266833E-15
      4.28523965432099E-02
      3.42819172345679E-02   3.42819172345679E-02   0.00000000000000E+00   0.00000000000000E+00   9.03682095912394E-17
     -1.13361327397477E-18   8.92345963172646E-17   3.02972289819167E-15   0.00000000000000E+00   0.00000000000000E+00
      0.00000000000000E+00   0.00000000000000E+00  -7.68469419410211E-19  -7.74131844035081E-18  -8.50978785976102E-18
     -1.11170134258654E-15   0.00000000000000E+00   0.00000000000000E+00   0.00000000000000E+00   0.00000000000000E+00
     -1.86432158723566E-17  -6.20815925851470E-17  -8.07248084575036E-17  -1.91802155560513E-15
      6.94587910111385E-02
      5.55670328089108E-02   5.55670328089109E-02   0.00000000000000E+00   0.00000000000000E+00   1.22504718015141E-16
      1.81109892420255E-18   1.24315816939344E-16   3.05247947574225E-15   0.00000000000000E+00   0.00000000000000E+00
      0.00000000000000E+00   0.00000000000000E+00  -9.21707522850795E-19  -1.08022604835069E-17  -1.17239680063577E-17
     -1.13426030369447E-15   0.00000000000000E+00   0.00000000000000E+00   0.00000000000000E+00   0.00000000000000E+00
     -2.18522745187082E-17  -9.07395744142779E-17  -1.12591848932986E-16  -1.91821917204778E-15
      1.06488979578391E-01
      8.51911836627130E-02   8.51911836627130E-02   0.00000000000000E+00   0.00000000000000E+00   1.54786119870511E-16
      4.86785243673623E-19   1.55272905114184E-16   3.08373664819378E-15   0.00000000000000E+00   0.00000000000000E+00
      0.00000000000000E+00   0.00000000000000E+00  -1.00154029916086E-18  -1.43678535153860E-17  -1.53693938145469E-17
     -1.16524248464110E-15   0.00000000000000E+00   0.00000000000000E+00   0.00000000000000E+00   0.00000000000000E+00
     -2.28941089784185E-17  -1.17009402321219E-16  -1.39903511299637E-16  -1.91849416355268E-15
      1.57352000808211E-01
      1.25881600646569E-01   1.25881600646569E-01   0.00000000000000E+00   0.00000000000000E+00   1.89535619626517E-16
     -1.63509829364376E-19   1.89372109797153E-16   3.12595117281042E-15   0.00000000000000E+00   0.00000000000000E+00
      0.00000000000000E+00   0.00000000000000E+00  -1.02967115915667E-18  -1.83242416844060E-17  -1.93539128435627E-17
     -1.20707934653476E-15   0.00000000000000E+00   0.00000000000000E+00   0.00000000000000E+00   0.00000000000000E+00
     -2.29523266394009E-17  -1.47065870314189E-16  -1.70018196953590E-16  -1.91887182627567E-15
      2.27215186190770E-01
      1.81772148952616E-01   1.81772148952616E-01   0.00000000000000E+00   0.00000000000000E+00   2.30204913007251E-16
      2.92307293262415E-19   2.30497220300514E-16   3.18272596000568E-15   0.00000000000000E+00   0.00000000000000E+00
      0.00000000000000E+00   0.00000000000000E+00  -1.03563422975911E-18  -2.31582165153105E-17  -2.41938507450696E-17
     -1.26333544144157E-15   0.00000000000000E+00   0.00000000000000E+00   0.00000000000000E+00   0.00000000000000E+00
     -2.29524592018456E-17  -1.83350910353598E-16  -2.06303369555444E-16  -1.91939051856411E-15
      3.23176152601792E-01
      2.58540922081434E-01   2.58540922081434E-01   0.00000000000000E+00   0.00000000000000E+00   2.79297412574317E-16
      4.29944874696849E-19   2.79727357449013E-16   3.25872377786842E-15   0.00000000000000E+00   0.00000000000000E+00
      0.00000000000000E+00   0.00000000000000E+00  -1.03624933918478E-18  -2.92824266547680E-17  -3.03186759939527E-17
     -1.33862085114425E-15   0.00000000000000E+00   0.00000000000000E+00   0.00000000000000E+00   0.00000000000000E+00
     -2.29524447650997E-17  -2.26456236689961E-16  -2.49408681455061E-16  -1.92010292672417E-15
      4.23176152601792E-01
      3.38540922081434E-01   3.38540922081433E-01   0.00000000000000E+00   0.00000000000000E+00   3.25248732299760E-16
      3.37842285133950E-19   3.25586574584894E-16   3.33579698620660E-15   0.00000000000000E+00   0.00000000000000E+00
      0.00000000000000E+00   0.00000000000000E+00  -1.03627745113590E-18  -3.52635179010415E-17  -3.62997953521774E-17
     -1.41495174028535E-15   0.00000000000000E+00   0.00000000000000E+00   0.00000000000000E+00   0.00000000000000E+00
     -2.29524691859495E-17  -2.66334310046767E-16  -2.89286779232717E-16  -1.92084524592126E-15
      5.23176152601792E-01
      4.18540922081434E-01   4.18540922081434E-01   0.00000000000000E+00   0.00000000000000E+00   3.67622692835483E-16
     -3.57553923520617E-20   3.67586937443131E-16   3.41093842868495E-15   0.00000000000000E+00   0.00000000000000E+00
      0.00000000000000E+00   0.00000000000000E+00  -1.03628651032013E-18  -4.08604525443191E-17  -4.18967390546392E-17
     -1.48935101276460E-15   0.00000000000000E+00   0.00000000000000E+00   0.00000000000000E+00   0.00000000000000E+00
     -2.29524932560678E-17  -3.02737705132424E-16  -3.25690198388492E-16  -1.92158741592035E-15
      6.23176152601792E-01
      4.98540922081434E-01   4.98540922081434E-01   0.00000000000000E+00   0.00000000000000E+00   4.07417147216267E-16
      2.49549929870728E-19   4.07666697146137E-16   3.48426470981171E-15   0.00000000000000E+00   0.00000000000000E+00
      0.00000000000000E+00   0.00000000000000E+00  -1.03629488451017E-18  -4.62149660662986E-17  -4.72512609508088E-17
     -1.56193536099728E-15   0.00000000000000E+00   0.00000000000000E+00   0.00000000000000E+00   0.00000000000000E+00
     -2.29525173973351E-17  -3.37462918797994E-16  -3.60415436195329E-16  -1.92232934881443E-15
      7.23176152601792E-01
      5.78540922081434E-01   5.78540922081434E-01   0.00000000000000E+00   0.00000000000000E+00   4.45221156787726E-16
     -2.87106619396869E-19   4.44934050168330E-16   3.55577487458635E-15   0.00000000000000E+00   0.00000000000000E+00
      0.00000000000000E+00   0.00000000000000E+00  -1.03630273953580E-18  -5.14141687627472E-17  -5.24504715022830E-17
     -1.63270391285348E-15   0.00000000000000E+00   0.00000000000000E+00   0.00000000000000E+00   0.00000000000000E+00
     -2.29525415662690E-17  -3.69531037099777E-16  -3.92483578666046E-16  -1.92307096173289E-15
      8.23176152601792E-01
      6.58540922081434E-01   6.58540922081434E-01   0.00000000000000E+00   0.00000000000000E+00   4.81402654400554E-16
      6.53558067747263E-19   4.82056212468301E-16   3.62534778780442E-15   0.00000000000000E+00   0.00000000000000E+00
      0.00000000000000E+00   0.00000000000000E+00  -1.03631011094882E-18  -5.65757562405084E-17  -5.76120663514572E-17
     -1.70153560656744E-15   0.00000000000000E+00   0.00000000000000E+00   0.00000000000000E+00   0.00000000000000E+00
     -2.29525657545382E-17  -4.01491580362306E-16  -4.24444146116844E-16  -1.92381218123699E-15
      9.23176152601792E-01
      7.38540922081434E-01   7.38540922081433E-01   0.00000000000000E+00   0.00000000000000E+00   5.16268628622942E-16
     -1.14036227161130E-18   5.15128266351331E-16   3.69275223194416E-15   0.00000000000000E+00   0.00000000000000E+00
      0.00000000000000E+00   0.00000000000000E+00  -1.03631692119309E-18  -6.19364345886920E-17  -6.29727515098851E-17
     -1.76819929398629E-15   0.00000000000000E+00   0.00000000000000E+00   0.00000000000000E+00   0.00000000000000E+00
     -2.29525899562096E-17  -4.29202924885236E-16  -4.52155514841446E-16  -1.92455293795787E-15
      1.00000000000000E+00
      8.00000000000000E-01   8.00000000000000E-01   0.00000000000000E+00   0.00000000000000E+00   5.42407523162915E-16
      1.08954867150899E-18   5.43497071834424E-16   3.74288943110128E-15   0.00000000000000E+00   0.00000000000000E+00
      0.00000000000000E+00   0.00000000000000E+00  -1.03632166964865E-18  -6.63482924089628E-17  -6.73846140786114E-17
     -1.81776777978409E-15   0.00000000000000E+00   0.00000000000000E+00   0.00000000000000E+00   0.00000000000000E+00
     -2.29526085544730E-17  -4.53159849201340E-16  -4.76112457755813E-16  -1.92512165131718E-15
}
