DF-ISE text

Info {
  version   = 1.0
  type      = xyplot
  datasets  = [
    "time"
    "Ntop OuterVoltage" "Ntop InnerVoltage" "Ntop QuasiFermiPotential" "Ntop DisplacementCurrent" "Ntop eCurrent"
    "Ntop hCurrent" "Ntop TotalCurrent" "Ntop Charge" "Ptop OuterVoltage" "Ptop InnerVoltage"
    "Ptop QuasiFermiPotential" "Ptop DisplacementCurrent" "Ptop eCurrent" "Ptop hCurrent" "Ptop TotalCurrent"
    "Ptop Charge" "Pbot OuterVoltage" "Pbot InnerVoltage" "Pbot QuasiFermiPotential" "Pbot DisplacementCurrent"
    "Pbot eCurrent" "Pbot hCurrent" "Pbot TotalCurrent" "Pbot Charge" ]
  functions = [
    Time
    OuterVoltage InnerVoltage QuasiFermiPotential DisplacementCurrent eCurrent
    hCurrent TotalCurrent Charge OuterVoltage InnerVoltage
    QuasiFermiPotential DisplacementCurrent eCurrent hCurrent TotalCurrent
    Charge OuterVoltage InnerVoltage QuasiFermiPotential DisplacementCurrent
    eCurrent hCurrent TotalCurrent Charge ]
}

Data {
      0.00000000000000E+00
      0.00000000000000E+00   0.00000000000000E+00   0.00000000000000E+00   0.00000000000000E+00   2.37495284315287E-25
     -4.23058535888986E-18  -4.23058512139457E-18   2.92497535716682E-15   0.00000000000000E+00   0.00000000000000E+00
      0.00000000000000E+00   0.00000000000000E+00  -2.37487047246359E-25  -2.93843942855209E-20  -2.93846317725682E-20
     -1.00727217613601E-15   0.00000000000000E+00   0.00000000000000E+00   0.00000000000000E+00   0.00000000000000E+00
     -8.24556634871315E-30   4.25996975317538E-18   4.25996975316714E-18  -1.91770318103081E-15
      0.00000000000000E+00
      0.00000000000000E+00   0.00000000000000E+00   0.00000000000000E+00   0.00000000000000E+00   7.72210030791651E-27
      1.78335336006983E-18   1.78335336779193E-18   2.92497535727020E-15   0.00000000000000E+00   0.00000000000000E+00
      0.00000000000000E+00   0.00000000000000E+00  -7.71593553134760E-27  -1.91227163031142E-20  -1.91227240190497E-20
     -1.00727217613601E-15   0.00000000000000E+00   0.00000000000000E+00   0.00000000000000E+00   0.00000000000000E+00
     -5.65363700822677E-30  -1.76423064376722E-18  -1.76423064377288E-18  -1.91770318113419E-15
      1.00000000000000E-02
      8.00000000000000E-03   7.99999999999997E-03   0.00000000000000E+00   0.00000000000000E+00   2.76917277986185E-17
     -7.44630338570077E-19   2.69470974600484E-17   2.93177796712481E-15   0.00000000000000E+00   0.00000000000000E+00
      0.00000000000000E+00   0.00000000000000E+00  -2.79512578509471E-19  -2.07903449509460E-18  -2.35854707360407E-18
     -1.01400047753161E-15   0.00000000000000E+00   0.00000000000000E+00   0.00000000000000E+00   0.00000000000000E+00
     -6.88169980486595E-18  -1.77068505815784E-17  -2.45885503864443E-17  -1.91777748959320E-15
      2.37355555555556E-02
      1.89884444444444E-02   1.89884444444444E-02   0.00000000000000E+00   0.00000000000000E+00   5.80451954942756E-17
      1.05716165400502E-18   5.91023571482807E-17   2.94106114225806E-15   0.00000000000000E+00   0.00000000000000E+00
      0.00000000000000E+00   0.00000000000000E+00  -5.45530304843671E-19  -4.43429401678451E-18  -4.97982432162818E-18
     -1.02318159956912E-15   0.00000000000000E+00   0.00000000000000E+00   0.00000000000000E+00   0.00000000000000E+00
     -1.33730849357043E-17  -4.07494478909482E-17  -5.41225328266524E-17  -1.91787954268895E-15
      4.28523965432099E-02
      3.42819172345679E-02   3.42819172345679E-02   0.00000000000000E+00   0.00000000000000E+00   8.99170991364193E-17
      1.65888552695846E-18   9.15759846633778E-17   2.95386855701541E-15   0.00000000000000E+00   0.00000000000000E+00
      0.00000000000000E+00   0.00000000000000E+00  -7.68469324519993E-19  -7.14592180525503E-18  -7.91439112977503E-18
     -1.03584700138483E-15   0.00000000000000E+00   0.00000000000000E+00   0.00000000000000E+00   0.00000000000000E+00
     -1.86432158864708E-17  -6.50183776471319E-17  -8.36615935336027E-17  -1.91802155563058E-15
      6.94587910111385E-02
      5.55670328089108E-02   5.55670328089109E-02   0.00000000000000E+00   0.00000000000000E+00   1.21858819151185E-16
     -9.28008188653606E-19   1.20930810962532E-16   2.97148538693416E-15   0.00000000000000E+00   0.00000000000000E+00
      0.00000000000000E+00   0.00000000000000E+00  -9.21696427843360E-19  -9.88072949062365E-18  -1.08024259184670E-17
     -1.05326621485269E-15   0.00000000000000E+00   0.00000000000000E+00   0.00000000000000E+00   0.00000000000000E+00
     -2.18522745254883E-17  -8.82761105185764E-17  -1.10128385044065E-16  -1.91821917208147E-15
      1.06488979578391E-01
      8.51911836627130E-02   8.51911836627130E-02   0.00000000000000E+00   0.00000000000000E+00   1.53928983909221E-16
     -2.05533070075201E-18   1.51873653208469E-16   2.99562541961991E-15   0.00000000000000E+00   0.00000000000000E+00
      0.00000000000000E+00   0.00000000000000E+00  -1.00151739965685E-18  -1.14309824017691E-17  -1.24324998014260E-17
     -1.07713125601827E-15   0.00000000000000E+00   0.00000000000000E+00   0.00000000000000E+00   0.00000000000000E+00
     -2.28943282575939E-17  -1.16546825149449E-16  -1.39441153407043E-16  -1.91849416360164E-15
      1.58026773133214E-01
      1.26421418506571E-01   1.26421418506572E-01   0.00000000000000E+00   0.00000000000000E+00   1.88863122722141E-16
      3.31972950450175E-19   1.89195095672591E-16   3.02854808307312E-15   0.00000000000000E+00   0.00000000000000E+00
      0.00000000000000E+00   0.00000000000000E+00  -1.02981839726416E-18  -1.70713415875427E-17  -1.81011599848069E-17
     -1.10967124673510E-15   0.00000000000000E+00   0.00000000000000E+00   0.00000000000000E+00   0.00000000000000E+00
     -2.29523293908491E-17  -1.48141606296935E-16  -1.71093935687784E-16  -1.91887683633802E-15
      2.28816795791517E-01
      1.83053436633213E-01   1.83053436633213E-01   0.00000000000000E+00   0.00000000000000E+00   2.29674967775061E-16
      8.07750477079549E-19   2.30482718252141E-16   3.07261846731532E-15   0.00000000000000E+00   0.00000000000000E+00
      0.00000000000000E+00   0.00000000000000E+00  -1.03567026927530E-18  -2.16591175656947E-17  -2.26947878349700E-17
     -1.15321605797136E-15   0.00000000000000E+00   0.00000000000000E+00   0.00000000000000E+00   0.00000000000000E+00
     -2.29524575025090E-17  -1.84835472914662E-16  -2.07787930417171E-16  -1.91940240934396E-15
      3.26050824691732E-01
      2.60840659753386E-01   2.60840659753386E-01   0.00000000000000E+00   0.00000000000000E+00   2.78816453758836E-16
      8.10053895101680E-21   2.78824554297787E-16   3.13124838466583E-15   0.00000000000000E+00   0.00000000000000E+00
      0.00000000000000E+00   0.00000000000000E+00  -1.03625381289506E-18  -2.73899244218446E-17  -2.84261782347396E-17
     -1.21112411700697E-15   0.00000000000000E+00   0.00000000000000E+00   0.00000000000000E+00   0.00000000000000E+00
     -2.29524454093500E-17  -2.27445930653697E-16  -2.50398376063047E-16  -1.92012426765887E-15
      4.26050824691732E-01
      3.40840659753386E-01   3.40840659753386E-01   0.00000000000000E+00   0.00000000000000E+00   3.24125945256231E-16
      2.30468839716232E-19   3.24356414095947E-16   3.18954506334641E-15   0.00000000000000E+00   0.00000000000000E+00
      0.00000000000000E+00   0.00000000000000E+00  -1.03628002818270E-18  -3.28285209112514E-17  -3.38648009394341E-17
     -1.26867847912040E-15   0.00000000000000E+00   0.00000000000000E+00   0.00000000000000E+00   0.00000000000000E+00
     -2.29524698752252E-17  -2.67539143281288E-16  -2.90491613156513E-16  -1.92086658422601E-15
      5.26050824691732E-01
      4.20840659753386E-01   4.20840659753385E-01   0.00000000000000E+00   0.00000000000000E+00   3.65896339246662E-16
      1.12293631482267E-18   3.67019275561485E-16   3.24604746635628E-15   0.00000000000000E+00   0.00000000000000E+00
      0.00000000000000E+00   0.00000000000000E+00  -1.03628926287836E-18  -3.79261399555688E-17  -3.89624292184471E-17
     -1.32443871663963E-15   0.00000000000000E+00   0.00000000000000E+00   0.00000000000000E+00   0.00000000000000E+00
     -2.29524939495750E-17  -3.05104352393463E-16  -3.28056846343038E-16  -1.92160874971665E-15
      6.26050824691732E-01
      5.00840659753386E-01   5.00840659753386E-01   0.00000000000000E+00   0.00000000000000E+00   4.05144046596102E-16
     -3.38252613104868E-19   4.04805793982997E-16   3.30090521585014E-15   0.00000000000000E+00   0.00000000000000E+00
      0.00000000000000E+00   0.00000000000000E+00  -1.03629789254572E-18  -4.27623811736796E-17  -4.37986790662253E-17
     -1.37855453894584E-15   0.00000000000000E+00   0.00000000000000E+00   0.00000000000000E+00   0.00000000000000E+00
     -2.29525180919198E-17  -3.38054596824852E-16  -3.61007114916772E-16  -1.92235067690431E-15
      7.26050824691732E-01
      5.80840659753386E-01   5.80840659753386E-01   0.00000000000000E+00   0.00000000000000E+00   4.42424821435601E-16
      6.61345555825495E-19   4.43086166991426E-16   3.35419053995597E-15   0.00000000000000E+00   0.00000000000000E+00
      0.00000000000000E+00   0.00000000000000E+00  -1.03630606651761E-18  -4.74363101964969E-17  -4.84726162630145E-17
     -1.43109825515769E-15   0.00000000000000E+00   0.00000000000000E+00   0.00000000000000E+00   0.00000000000000E+00
     -2.29525422616767E-17  -3.71661008466735E-16  -3.94613550728412E-16  -1.92309228479828E-15
      8.26050824691732E-01
      6.60840659753386E-01   6.60840659753386E-01   0.00000000000000E+00   0.00000000000000E+00   4.78023990482430E-16
      9.12099728245976E-19   4.78936090210676E-16   3.40590388317098E-15   0.00000000000000E+00   0.00000000000000E+00
      0.00000000000000E+00   0.00000000000000E+00  -1.03631382355102E-18  -5.20786564625310E-17  -5.31149702860820E-17
     -1.48207037912964E-15   0.00000000000000E+00   0.00000000000000E+00   0.00000000000000E+00   0.00000000000000E+00
     -2.29525664508041E-17  -4.02868553473790E-16  -4.25821119924594E-16  -1.92383350404135E-15
      9.26050824691732E-01
      7.40840659753386E-01   7.40840659753386E-01   0.00000000000000E+00   0.00000000000000E+00   5.12156334011382E-16
      7.90330008817103E-19   5.12946664020199E-16   3.45598526099997E-15   0.00000000000000E+00   0.00000000000000E+00
      0.00000000000000E+00   0.00000000000000E+00  -1.03632111232625E-18  -5.67104528573734E-17  -5.77467739696996E-17
     -1.53141098630526E-15   0.00000000000000E+00   0.00000000000000E+00   0.00000000000000E+00   0.00000000000000E+00
     -2.29525906537057E-17  -4.32247299396793E-16  -4.55199890050499E-16  -1.92457427469470E-15
      1.00000000000000E+00
      8.00000000000000E-01   8.00000000000000E-01   0.00000000000000E+00   0.00000000000000E+00   5.36619259990200E-16
     -2.53075747150506E-19   5.36366184243049E-16   3.49191979667831E-15   0.00000000000000E+00   0.00000000000000E+00
      0.00000000000000E+00   0.00000000000000E+00  -1.03632615420417E-18  -6.02501080977770E-17  -6.12864342519812E-17
     -1.56679805104837E-15   0.00000000000000E+00   0.00000000000000E+00   0.00000000000000E+00   0.00000000000000E+00
     -2.29526085575588E-17  -4.52127141433509E-16  -4.75079749991068E-16  -1.92512174562994E-15
}
