DF-ISE text

Info {
  version   = 1.0
  type      = xyplot
  datasets  = [
    "time"
    "Ntop OuterVoltage" "Ntop InnerVoltage" "Ntop QuasiFermiPotential" "Ntop DisplacementCurrent" "Ntop eCurrent"
    "Ntop hCurrent" "Ntop TotalCurrent" "Ntop Charge" "Ptop OuterVoltage" "Ptop InnerVoltage"
    "Ptop QuasiFermiPotential" "Ptop DisplacementCurrent" "Ptop eCurrent" "Ptop hCurrent" "Ptop TotalCurrent"
    "Ptop Charge" "Pbot OuterVoltage" "Pbot InnerVoltage" "Pbot QuasiFermiPotential" "Pbot DisplacementCurrent"
    "Pbot eCurrent" "Pbot hCurrent" "Pbot TotalCurrent" "Pbot Charge" ]
  functions = [
    Time
    OuterVoltage InnerVoltage QuasiFermiPotential DisplacementCurrent eCurrent
    hCurrent TotalCurrent Charge OuterVoltage InnerVoltage
    QuasiFermiPotential DisplacementCurrent eCurrent hCurrent TotalCurrent
    Charge OuterVoltage InnerVoltage QuasiFermiPotential DisplacementCurrent
    eCurrent hCurrent TotalCurrent Charge ]
}

Data {
      0.00000000000000E+00
      0.00000000000000E+00   0.00000000000000E+00   0.00000000000000E+00   0.00000000000000E+00  -7.18971331970991E-26
     -4.39277071410427E-18  -4.39277078600140E-18   4.85821041111586E-15   0.00000000000000E+00   0.00000000000000E+00
      0.00000000000000E+00   0.00000000000000E+00   7.19159685409104E-26   1.32799159641953E-19   1.32799231557922E-19
     -2.94050723009061E-15   0.00000000000000E+00   0.00000000000000E+00   0.00000000000000E+00   0.00000000000000E+00
     -1.88437866973496E-29   4.25997155446232E-18   4.25997155444348E-18  -1.91770318102527E-15
      0.00000000000000E+00
      0.00000000000000E+00   0.00000000000000E+00   0.00000000000000E+00   0.00000000000000E+00   1.25617111596447E-26
     -6.14821868596598E-19  -6.14821856034887E-19   4.85821041121924E-15   0.00000000000000E+00   0.00000000000000E+00
      0.00000000000000E+00   0.00000000000000E+00  -1.25656926177299E-26   1.64864806508899E-21   1.64863549939637E-21
     -2.94050723009059E-15   0.00000000000000E+00   0.00000000000000E+00   0.00000000000000E+00   0.00000000000000E+00
      4.47557570361565E-30   6.13173220531015E-19   6.13173220535490E-19  -1.91770318112865E-15
      1.00000000000000E-02
      8.00000000000000E-03   7.99999999999997E-03   0.00000000000000E+00   0.00000000000000E+00   2.77334831695096E-17
      2.41584610644414E-18   3.01493292759537E-17   4.88426787215024E-15   0.00000000000000E+00   0.00000000000000E+00
      0.00000000000000E+00   0.00000000000000E+00  -2.79501728736749E-19  -2.14009682935381E-18  -2.41959855809056E-18
     -2.96649038256334E-15   0.00000000000000E+00   0.00000000000000E+00   0.00000000000000E+00   0.00000000000000E+00
     -6.88169979778676E-18  -2.08480309200764E-17  -2.77297307178632E-17  -1.91777748958691E-15
      2.37355555555556E-02
      1.89884444444444E-02   1.89884444444444E-02   0.00000000000000E+00   0.00000000000000E+00   5.81388658998532E-17
      2.43187499323000E-18   6.05707408930832E-17   4.91996263900241E-15   0.00000000000000E+00   0.00000000000000E+00
      0.00000000000000E+00   0.00000000000000E+00  -5.45529380683185E-19  -4.60103963407647E-18  -5.14656901475965E-18
     -3.00208309632088E-15   0.00000000000000E+00   0.00000000000000E+00   0.00000000000000E+00   0.00000000000000E+00
     -1.33730849259136E-17  -4.20510869524099E-17  -5.54241718783235E-17  -1.91787954268152E-15
      4.28523965432099E-02
      3.42819172345679E-02   3.42819172345679E-02   0.00000000000000E+00   0.00000000000000E+00   9.00753810995000E-17
     -1.24337584259673E-18   8.88320052569033E-17   4.96946066081779E-15   0.00000000000000E+00   0.00000000000000E+00
      0.00000000000000E+00   0.00000000000000E+00  -7.68468051648887E-19  -7.34949435150712E-18  -8.11796240315601E-18
     -3.05143910519643E-15   0.00000000000000E+00   0.00000000000000E+00   0.00000000000000E+00   0.00000000000000E+00
     -1.86432158783169E-17  -6.20708269754304E-17  -8.07140428537473E-17  -1.91802155562136E-15
      6.94587910111385E-02
      5.55670328089108E-02   5.55670328089109E-02   0.00000000000000E+00   0.00000000000000E+00   1.22097705338317E-16
     -1.43082232327455E-18   1.20666883015043E-16   5.03801207830620E-15   0.00000000000000E+00   0.00000000000000E+00
      0.00000000000000E+00   0.00000000000000E+00  -9.21693593187557E-19  -1.02407540196954E-17  -1.11624476128830E-17
     -3.11979290623698E-15   0.00000000000000E+00   0.00000000000000E+00   0.00000000000000E+00   0.00000000000000E+00
     -2.18522745215526E-17  -8.76521608806071E-17  -1.09504435402160E-16  -1.91821917206919E-15
      1.06488979578391E-01
      8.51911836627130E-02   8.51911836627130E-02   0.00000000000000E+00   0.00000000000000E+00   1.54270373636278E-16
     -1.70364876252113E-19   1.54100008760026E-16   5.13279274050578E-15   0.00000000000000E+00   0.00000000000000E+00
      0.00000000000000E+00   0.00000000000000E+00  -1.00154064512668E-18  -1.37435958195857E-17  -1.47451364647124E-17
     -3.21429857692204E-15   0.00000000000000E+00   0.00000000000000E+00   0.00000000000000E+00   0.00000000000000E+00
     -2.28941089787945E-17  -1.16460763316519E-16  -1.39354872295313E-16  -1.91849416358373E-15
      1.57352000808211E-01
      1.25881600646569E-01   1.25881600646569E-01   0.00000000000000E+00   0.00000000000000E+00   1.88918794510348E-16
     -1.00395591772299E-19   1.88818398918575E-16   5.26185088682936E-15   0.00000000000000E+00   0.00000000000000E+00
      0.00000000000000E+00   0.00000000000000E+00  -1.02967154476672E-18  -1.75984319728534E-17  -1.86281035176201E-17
     -3.34297906050298E-15   0.00000000000000E+00   0.00000000000000E+00   0.00000000000000E+00   0.00000000000000E+00
     -2.29523266394031E-17  -1.47237968761552E-16  -1.70190295400955E-16  -1.91887182632637E-15
      2.27215186190770E-01
      1.81772148952616E-01   1.81772148952616E-01   0.00000000000000E+00   0.00000000000000E+00   2.29459502187504E-16
      5.77502021273966E-20   2.29517252389631E-16   5.43711144838876E-15   0.00000000000000E+00   0.00000000000000E+00
      0.00000000000000E+00   0.00000000000000E+00  -1.03563462606963E-18  -2.23073004281943E-17  -2.33429350542639E-17
     -3.51772092972816E-15   0.00000000000000E+00   0.00000000000000E+00   0.00000000000000E+00   0.00000000000000E+00
     -2.29524592018485E-17  -1.83221858133519E-16  -2.06174317335368E-16  -1.91939051866059E-15
      3.23176152601792E-01
      2.58540922081434E-01   2.58540922081434E-01   0.00000000000000E+00   0.00000000000000E+00   2.78310564367897E-16
      1.00931288215956E-19   2.78411495656113E-16   5.67422692838650E-15   0.00000000000000E+00   0.00000000000000E+00
      0.00000000000000E+00   0.00000000000000E+00  -1.03624975343518E-18  -2.81924819371209E-17  -2.92287316905560E-17
     -3.75412400143868E-15   0.00000000000000E+00   0.00000000000000E+00   0.00000000000000E+00   0.00000000000000E+00
     -2.29524447651078E-17  -2.26230319200449E-16  -2.49182763965557E-16  -1.92010292694780E-15
      4.23176152601792E-01
      3.38540922081434E-01   3.38540922081433E-01   0.00000000000000E+00   0.00000000000000E+00   3.23963574717306E-16
      3.43851477642797E-19   3.24307426194949E-16   5.91688001503046E-15   0.00000000000000E+00   0.00000000000000E+00
      0.00000000000000E+00   0.00000000000000E+00  -1.03627792031881E-18  -3.38552789947913E-17  -3.48915569151101E-17
     -3.99603476859267E-15   0.00000000000000E+00   0.00000000000000E+00   0.00000000000000E+00   0.00000000000000E+00
     -2.29524691859661E-17  -2.66463400093872E-16  -2.89415869279838E-16  -1.92084524643777E-15
      5.23176152601792E-01
      4.18540922081434E-01   4.18540922081434E-01   0.00000000000000E+00   0.00000000000000E+00   3.66066136506219E-16
      1.30031664497714E-20   3.66079139672669E-16   6.15478479175644E-15   0.00000000000000E+00   0.00000000000000E+00
      0.00000000000000E+00   0.00000000000000E+00  -1.03628707020444E-18  -3.91913177737146E-17  -4.02276048439190E-17
     -4.23319737467420E-15   0.00000000000000E+00   0.00000000000000E+00   0.00000000000000E+00   0.00000000000000E+00
     -2.29524932561056E-17  -3.02899041572644E-16  -3.25851534828750E-16  -1.92158741708226E-15
      6.23176152601792E-01
      4.98540922081434E-01   4.98540922081434E-01   0.00000000000000E+00   0.00000000000000E+00   4.05621532441177E-16
      2.43946269942601E-19   4.05865478711120E-16   6.38794886945259E-15   0.00000000000000E+00   0.00000000000000E+00
      0.00000000000000E+00   0.00000000000000E+00  -1.03629555666211E-18  -4.42954243229440E-17  -4.53317198796061E-17
     -4.46561951806039E-15   0.00000000000000E+00   0.00000000000000E+00   0.00000000000000E+00   0.00000000000000E+00
     -2.29525173974189E-17  -3.37581241434095E-16  -3.60533758831514E-16  -1.92232935139220E-15
      7.23176152601792E-01
      5.78540922081434E-01   5.78540922081434E-01   0.00000000000000E+00   0.00000000000000E+00   4.43206611879659E-16
      3.64838242621433E-19   4.43571450122281E-16   6.61703200970673E-15   0.00000000000000E+00   0.00000000000000E+00
      0.00000000000000E+00   0.00000000000000E+00  -1.03630355100047E-18  -4.92555000055584E-17  -5.02918035565588E-17
     -4.69396104226071E-15   0.00000000000000E+00   0.00000000000000E+00   0.00000000000000E+00   0.00000000000000E+00
     -2.29525415664555E-17  -3.70327104999266E-16  -3.93279646565722E-16  -1.92307096744602E-15
      8.23176152601792E-01
      6.58540922081434E-01   6.58540922081434E-01   0.00000000000000E+00   0.00000000000000E+00   4.79164665749915E-16
      1.44545925168112E-19   4.79309211675083E-16   6.84277892299249E-15   0.00000000000000E+00   0.00000000000000E+00
      0.00000000000000E+00   0.00000000000000E+00  -1.03631109495484E-18  -5.42052553918899E-17  -5.52415664868448E-17
     -4.91896672893530E-15   0.00000000000000E+00   0.00000000000000E+00   0.00000000000000E+00   0.00000000000000E+00
     -2.29525657549567E-17  -4.01115079433282E-16  -4.24067645188238E-16  -1.92381219405718E-15
      9.23176152601792E-01
      7.38540922081434E-01   7.38540922081433E-01   0.00000000000000E+00   0.00000000000000E+00   5.13750725389902E-16
      6.11882260425440E-19   5.14362607650327E-16   7.06549384285001E-15   0.00000000000000E+00   0.00000000000000E+00
      0.00000000000000E+00   0.00000000000000E+00  -1.03631813656370E-18  -5.92666991784870E-17  -6.03030173150507E-17
     -5.14094087541440E-15   0.00000000000000E+00   0.00000000000000E+00   0.00000000000000E+00   0.00000000000000E+00
     -2.29525899571731E-17  -4.31107000378104E-16  -4.54059590335277E-16  -1.92455296743561E-15
      1.00000000000000E+00
      8.00000000000000E-01   8.00000000000000E-01   0.00000000000000E+00   0.00000000000000E+00   5.39578954764731E-16
     -2.07557798804218E-19   5.39371396965927E-16   7.23454074104296E-15   0.00000000000000E+00   0.00000000000000E+00
      0.00000000000000E+00   0.00000000000000E+00  -1.03632312300241E-18  -6.33521242761810E-17  -6.43884473991834E-17
     -5.30941903275023E-15   0.00000000000000E+00   0.00000000000000E+00   0.00000000000000E+00   0.00000000000000E+00
     -2.29526085563371E-17  -4.52030341010406E-16  -4.74982949566743E-16  -1.92512170829273E-15
}
