DF-ISE text

Info {
  version   = 1.0
  type      = xyplot
  datasets  = [
    "time"
    "Ntop OuterVoltage" "Ntop InnerVoltage" "Ntop QuasiFermiPotential" "Ntop DisplacementCurrent" "Ntop eCurrent"
    "Ntop hCurrent" "Ntop TotalCurrent" "Ntop Charge" "Ptop OuterVoltage" "Ptop InnerVoltage"
    "Ptop QuasiFermiPotential" "Ptop DisplacementCurrent" "Ptop eCurrent" "Ptop hCurrent" "Ptop TotalCurrent"
    "Ptop Charge" "Pbot OuterVoltage" "Pbot InnerVoltage" "Pbot QuasiFermiPotential" "Pbot DisplacementCurrent"
    "Pbot eCurrent" "Pbot hCurrent" "Pbot TotalCurrent" "Pbot Charge" ]
  functions = [
    Time
    OuterVoltage InnerVoltage QuasiFermiPotential DisplacementCurrent eCurrent
    hCurrent TotalCurrent Charge OuterVoltage InnerVoltage
    QuasiFermiPotential DisplacementCurrent eCurrent hCurrent TotalCurrent
    Charge OuterVoltage InnerVoltage QuasiFermiPotential DisplacementCurrent
    eCurrent hCurrent TotalCurrent Charge ]
}

Data {
      0.00000000000000E+00
      0.00000000000000E+00   0.00000000000000E+00   0.00000000000000E+00   0.00000000000000E+00  -1.65721637460619E-25
     -4.47467103720041E-18  -4.47467120292205E-18   3.18685387687569E-15   0.00000000000000E+00   0.00000000000000E+00
      0.00000000000000E+00   0.00000000000000E+00   1.65688653187681E-25   8.56094356331757E-20   8.56096013218288E-20
     -1.26915069584519E-15   0.00000000000000E+00   0.00000000000000E+00   0.00000000000000E+00   0.00000000000000E+00
      3.29794712422758E-29   4.38906160156724E-18   4.38906160160022E-18  -1.91770318103050E-15
      0.00000000000000E+00
      0.00000000000000E+00   0.00000000000000E+00   0.00000000000000E+00   0.00000000000000E+00  -2.42644602535509E-27
      9.46893667577698E-19   9.46893665151252E-19   3.18685387697907E-15   0.00000000000000E+00   0.00000000000000E+00
      0.00000000000000E+00   0.00000000000000E+00   2.42716134016402E-27  -2.31520855166548E-22  -2.31518428005208E-22
     -1.26915069584520E-15   0.00000000000000E+00   0.00000000000000E+00   0.00000000000000E+00   0.00000000000000E+00
     -2.35612052906186E-31  -9.46662146723012E-19  -9.46662146723247E-19  -1.91770318113387E-15
      1.00000000000000E-02
      8.00000000000000E-03   7.99999999999997E-03   0.00000000000000E+00   0.00000000000000E+00   2.76963285156968E-17
      5.39510766545368E-19   2.82358392822421E-17   3.19736672627487E-15   0.00000000000000E+00   0.00000000000000E+00
      0.00000000000000E+00   0.00000000000000E+00  -2.79512231355473E-19  -2.08762379397418E-18  -2.36713602532966E-18
     -1.27958923668207E-15   0.00000000000000E+00   0.00000000000000E+00   0.00000000000000E+00   0.00000000000000E+00
     -6.88169980113219E-18  -1.89870034557803E-17  -2.58687032569125E-17  -1.91777748959280E-15
      2.37355555555556E-02
      1.89884444444444E-02   1.89884444444444E-02   0.00000000000000E+00   0.00000000000000E+00   5.80557932123410E-17
      1.62897671218942E-19   5.82186908835600E-17   3.21176797428099E-15   0.00000000000000E+00   0.00000000000000E+00
      0.00000000000000E+00   0.00000000000000E+00  -5.45530140650427E-19  -4.48654247128163E-18  -5.03207261193206E-18
     -1.29388843159258E-15   0.00000000000000E+00   0.00000000000000E+00   0.00000000000000E+00   0.00000000000000E+00
     -1.33730849305555E-17  -3.98135333410724E-17  -5.31866182716279E-17  -1.91787954268841E-15
      4.28523965432099E-02
      3.42819172345679E-02   3.42819172345679E-02   0.00000000000000E+00   0.00000000000000E+00   8.99355510991308E-17
      7.59415755927618E-19   9.06949668550584E-17   3.23173951555047E-15   0.00000000000000E+00   0.00000000000000E+00
      0.00000000000000E+00   0.00000000000000E+00  -7.68468576878712E-19  -7.19006269542583E-18  -7.95853127230454E-18
     -1.31371795992060E-15   0.00000000000000E+00   0.00000000000000E+00   0.00000000000000E+00   0.00000000000000E+00
     -1.86432158822158E-17  -6.40932197005381E-17  -8.27364355827539E-17  -1.91802155562986E-15
      6.94587910111385E-02
      5.55670328089108E-02   5.55670328089109E-02   0.00000000000000E+00   0.00000000000000E+00   1.21887666117422E-16
      6.80763537151627E-19   1.22568429654573E-16   3.25940298853361E-15   0.00000000000000E+00   0.00000000000000E+00
      0.00000000000000E+00   0.00000000000000E+00  -9.21691435194601E-19  -1.03027579357026E-17  -1.12244493708972E-17
     -1.34118381645314E-15   0.00000000000000E+00   0.00000000000000E+00   0.00000000000000E+00   0.00000000000000E+00
     -2.18522745234587E-17  -8.94917057602173E-17  -1.11343980283676E-16  -1.91821917208048E-15
      1.06488979578391E-01
      8.51911836627130E-02   8.51911836627130E-02   0.00000000000000E+00   0.00000000000000E+00   1.53972546911546E-16
     -2.19486265707640E-19   1.53753060645838E-16   3.29766225287165E-15   0.00000000000000E+00   0.00000000000000E+00
      0.00000000000000E+00   0.00000000000000E+00  -1.00154224295580E-18  -1.33858859014552E-17  -1.43874281444110E-17
     -1.37916808927148E-15   0.00000000000000E+00   0.00000000000000E+00   0.00000000000000E+00   0.00000000000000E+00
     -2.28941089790525E-17  -1.16471523522375E-16  -1.39365632501427E-16  -1.91849416360018E-15
      1.57352000808211E-01
      1.25881600646569E-01   1.25881600646569E-01   0.00000000000000E+00   0.00000000000000E+00   1.88512555822827E-16
     -3.50228364601141E-20   1.88477532986367E-16   3.34978177768954E-15   0.00000000000000E+00   0.00000000000000E+00
      0.00000000000000E+00   0.00000000000000E+00  -1.02967320035607E-18  -1.71284653315147E-17  -1.81581385318708E-17
     -1.43090995133615E-15   0.00000000000000E+00   0.00000000000000E+00   0.00000000000000E+00   0.00000000000000E+00
     -2.29523266394037E-17  -1.47367067815092E-16  -1.70319394454496E-16  -1.91887182635339E-15
      2.27215186190770E-01
      1.81772148952616E-01   1.81772148952616E-01   0.00000000000000E+00   0.00000000000000E+00   2.28927842517972E-16
      2.44016656258064E-19   2.29171859174230E-16   3.42059941498958E-15   0.00000000000000E+00   0.00000000000000E+00
      0.00000000000000E+00   0.00000000000000E+00  -1.03563626551743E-18  -2.17145000952850E-17  -2.27501363608024E-17
     -1.50120889627712E-15   0.00000000000000E+00   0.00000000000000E+00   0.00000000000000E+00   0.00000000000000E+00
     -2.29524592018499E-17  -1.83469263611578E-16  -2.06421722813427E-16  -1.91939051871246E-15
      3.23176152601792E-01
      2.58540922081434E-01   2.58540922081434E-01   0.00000000000000E+00   0.00000000000000E+00   2.77671354905515E-16
      7.06630726618923E-19   2.78377985632134E-16   3.51645833290100E-15   0.00000000000000E+00   0.00000000000000E+00
      0.00000000000000E+00   0.00000000000000E+00  -1.03625132132693E-18  -2.74919960954348E-17  -2.85282474167617E-17
     -1.59635540583164E-15   0.00000000000000E+00   0.00000000000000E+00   0.00000000000000E+00   0.00000000000000E+00
     -2.29524447651130E-17  -2.26897293450259E-16  -2.49849738215372E-16  -1.92010292706936E-15
      4.23176152601792E-01
      3.38540922081434E-01   3.38540922081433E-01   0.00000000000000E+00   0.00000000000000E+00   3.23293499598593E-16
      4.90502416740950E-19   3.23784002015334E-16   3.61460603748803E-15   0.00000000000000E+00   0.00000000000000E+00
      0.00000000000000E+00   0.00000000000000E+00  -1.03627952512627E-18  -3.31166905228433E-17  -3.41529700479696E-17
     -1.69376079076644E-15   0.00000000000000E+00   0.00000000000000E+00   0.00000000000000E+00   0.00000000000000E+00
     -2.29524691859755E-17  -2.66678562781389E-16  -2.89631031967364E-16  -1.92084524672159E-15
      5.23176152601792E-01
      4.18540922081434E-01   4.18540922081434E-01   0.00000000000000E+00   0.00000000000000E+00   3.65387288899000E-16
      9.24634861973930E-19   3.66311923760973E-16   3.71093021864623E-15   0.00000000000000E+00   0.00000000000000E+00
      0.00000000000000E+00   0.00000000000000E+00  -1.03628878396145E-18  -3.84451357685075E-17  -3.94814245524689E-17
     -1.78934280091910E-15   0.00000000000000E+00   0.00000000000000E+00   0.00000000000000E+00   0.00000000000000E+00
     -2.29524932561265E-17  -3.03878005952378E-16  -3.26830499208505E-16  -1.92158741772712E-15
      6.23176152601792E-01
      4.98540922081434E-01   4.98540922081434E-01   0.00000000000000E+00   0.00000000000000E+00   4.04892412228319E-16
      9.37070574293380E-19   4.05829482802613E-16   3.80537798709691E-15   0.00000000000000E+00   0.00000000000000E+00
      0.00000000000000E+00   0.00000000000000E+00  -1.03629740155650E-18  -4.34848790817180E-17  -4.45211764832745E-17
     -1.88304863426123E-15   0.00000000000000E+00   0.00000000000000E+00   0.00000000000000E+00   0.00000000000000E+00
     -2.29525173974661E-17  -3.38355788921872E-16  -3.61308306319338E-16  -1.92232935283568E-15
      7.23176152601792E-01
      5.78540922081434E-01   5.78540922081434E-01   0.00000000000000E+00   0.00000000000000E+00   4.42358925840642E-16
      9.47676736166158E-19   4.43306602576808E-16   3.89788480021066E-15   0.00000000000000E+00   0.00000000000000E+00
      0.00000000000000E+00   0.00000000000000E+00  -1.03630555020305E-18  -4.83236942238378E-17  -4.93599997740408E-17
     -1.97481382954223E-15   0.00000000000000E+00   0.00000000000000E+00   0.00000000000000E+00   0.00000000000000E+00
     -2.29525415665606E-17  -3.70994061236207E-16  -3.93946602802768E-16  -1.92307097066844E-15
      8.23176152601792E-01
      6.58540922081434E-01   6.58540922081434E-01   0.00000000000000E+00   0.00000000000000E+00   4.78118339745654E-16
      1.28737138411136E-18   4.79405711129765E-16   3.98836117410742E-15   0.00000000000000E+00   0.00000000000000E+00
      0.00000000000000E+00   0.00000000000000E+00  -1.03631327388534E-18  -5.30646045908868E-17  -5.41009178647722E-17
     -2.06454897278809E-15   0.00000000000000E+00   0.00000000000000E+00   0.00000000000000E+00   0.00000000000000E+00
     -2.29525657551937E-17  -4.02352227509799E-16  -4.25304793264993E-16  -1.92381220131932E-15
      9.23176152601792E-01
      7.38540922081434E-01   7.38540922081433E-01   0.00000000000000E+00   0.00000000000000E+00   5.12412197378976E-16
      3.64370910047226E-19   5.12776568289023E-16   4.07668580164588E-15   0.00000000000000E+00   0.00000000000000E+00
      0.00000000000000E+00   0.00000000000000E+00  -1.03632054452689E-18  -5.78205130654958E-17  -5.88568336100227E-17
     -2.15213281752505E-15   0.00000000000000E+00   0.00000000000000E+00   0.00000000000000E+00   0.00000000000000E+00
     -2.29525899577187E-17  -4.30967144721282E-16  -4.53919734679001E-16  -1.92455298412084E-15
      1.00000000000000E+00
      8.00000000000000E-01   8.00000000000000E-01   0.00000000000000E+00   0.00000000000000E+00   5.37940987480476E-16
      2.27611298432213E-19   5.38168598778908E-16   4.14299539951266E-15   0.00000000000000E+00   0.00000000000000E+00
      0.00000000000000E+00   0.00000000000000E+00  -1.03632573523038E-18  -6.16006988814797E-17  -6.26370246167100E-17
     -2.21787365914510E-15   0.00000000000000E+00   0.00000000000000E+00   0.00000000000000E+00   0.00000000000000E+00
     -2.29526085573865E-17  -4.52578965604811E-16  -4.75531574162198E-16  -1.92512174036754E-15
}
