DF-ISE text

Info {
  version   = 1.0
  type      = xyplot
  datasets  = [
    "time"
    "Ntop OuterVoltage" "Ntop InnerVoltage" "Ntop QuasiFermiPotential" "Ntop DisplacementCurrent" "Ntop eCurrent"
    "Ntop hCurrent" "Ntop TotalCurrent" "Ntop Charge" "Ptop OuterVoltage" "Ptop InnerVoltage"
    "Ptop QuasiFermiPotential" "Ptop DisplacementCurrent" "Ptop eCurrent" "Ptop hCurrent" "Ptop TotalCurrent"
    "Ptop Charge" "Pbot OuterVoltage" "Pbot InnerVoltage" "Pbot QuasiFermiPotential" "Pbot DisplacementCurrent"
    "Pbot eCurrent" "Pbot hCurrent" "Pbot TotalCurrent" "Pbot Charge" ]
  functions = [
    Time
    OuterVoltage InnerVoltage QuasiFermiPotential DisplacementCurrent eCurrent
    hCurrent TotalCurrent Charge OuterVoltage InnerVoltage
    QuasiFermiPotential DisplacementCurrent eCurrent hCurrent TotalCurrent
    Charge OuterVoltage InnerVoltage QuasiFermiPotential DisplacementCurrent
    eCurrent hCurrent TotalCurrent Charge ]
}

Data {
      0.00000000000000E+00
      0.00000000000000E+00   0.00000000000000E+00   0.00000000000000E+00   0.00000000000000E+00   6.10333247154640E-26
     -4.25270751570529E-18  -4.25270745467197E-18   2.90741107274223E-15   0.00000000000000E+00   0.00000000000000E+00
      0.00000000000000E+00   0.00000000000000E+00  -6.10246235130009E-26  -6.10506577405964E-20  -6.10507187652199E-20
     -9.89707891721797E-16   0.00000000000000E+00   0.00000000000000E+00   0.00000000000000E+00   0.00000000000000E+00
     -8.71621277176481E-30   4.31375817344590E-18   4.31375817343719E-18  -1.91770318102043E-15
      0.00000000000000E+00
      0.00000000000000E+00   0.00000000000000E+00   0.00000000000000E+00   0.00000000000000E+00   3.21591787369607E-27
     -1.01148694027619E-18  -1.01148693706027E-18   2.90741107284561E-15   0.00000000000000E+00   0.00000000000000E+00
      0.00000000000000E+00   0.00000000000000E+00  -3.22984392137571E-27  -2.12352378505447E-20  -2.12352410803887E-20
     -9.89707891721809E-16   0.00000000000000E+00   0.00000000000000E+00   0.00000000000000E+00   0.00000000000000E+00
      1.43694651455412E-29   1.03272217812629E-18   1.03272217814066E-18  -1.91770318112381E-15
      1.00000000000000E-02
      8.00000000000000E-03   7.99999999999997E-03   0.00000000000000E+00   0.00000000000000E+00   2.77810493403720E-17
      2.06125855744156E-18   2.98423078978136E-17   2.91479892667499E-15   0.00000000000000E+00   0.00000000000000E+00
      0.00000000000000E+00   0.00000000000000E+00  -2.79511925040621E-19  -2.16653076150187E-18  -2.44604268654249E-18
     -9.97021437093450E-16   0.00000000000000E+00   0.00000000000000E+00   0.00000000000000E+00   0.00000000000000E+00
     -6.88169980065648E-18  -2.05145654106146E-17  -2.73962652112711E-17  -1.91777748958155E-15
      2.37355555555556E-02
      1.89884444444444E-02   1.89884444444444E-02   0.00000000000000E+00   0.00000000000000E+00   5.82418602861555E-17
      1.71075034058691E-18   5.99526106267424E-17   2.92487698984778E-15   0.00000000000000E+00   0.00000000000000E+00
      0.00000000000000E+00   0.00000000000000E+00  -5.45529476062661E-19  -4.73592553668315E-18  -5.28145501274581E-18
     -1.00699744717244E-15   0.00000000000000E+00   0.00000000000000E+00   0.00000000000000E+00   0.00000000000000E+00
     -1.33730849299306E-17  -4.12980706840659E-17  -5.46711556139965E-17  -1.91787954267534E-15
      4.28523965432099E-02
      3.42819172345679E-02   3.42819172345679E-02   0.00000000000000E+00   0.00000000000000E+00   9.02410502689271E-17
     -9.94041035057273E-19   8.92470092338698E-17   2.93877412995799E-15   0.00000000000000E+00   0.00000000000000E+00
      0.00000000000000E+00   0.00000000000000E+00  -7.68469185744472E-19  -7.52783570718723E-18  -8.29630489293170E-18
     -1.02075257434415E-15   0.00000000000000E+00   0.00000000000000E+00   0.00000000000000E+00   0.00000000000000E+00
     -1.86432158817226E-17  -6.23074884592155E-17  -8.09507043409381E-17  -1.91802155561384E-15
      6.94587910111385E-02
      5.55670328089108E-02   5.55670328089109E-02   0.00000000000000E+00   0.00000000000000E+00   1.22330923577180E-16
     -2.45726777225346E-19   1.22085196799954E-16   2.95787726146021E-15   0.00000000000000E+00   0.00000000000000E+00
      0.00000000000000E+00   0.00000000000000E+00  -9.21703797087470E-19  -1.05725397954830E-17  -1.14942435925704E-17
     -1.03965808940085E-15   0.00000000000000E+00   0.00000000000000E+00   0.00000000000000E+00   0.00000000000000E+00
     -2.18522745232323E-17  -8.87386786841516E-17  -1.10590953207384E-16  -1.91821917205935E-15
      1.06488979578391E-01
      8.51911836627130E-02   8.51911836627130E-02   0.00000000000000E+00   0.00000000000000E+00   1.54572888031943E-16
     -3.31475221603152E-18   1.51258135815912E-16   2.98403136564013E-15   0.00000000000000E+00   0.00000000000000E+00
      0.00000000000000E+00   0.00000000000000E+00  -1.00156961045592E-18  -1.34402437565135E-17  -1.44418133669694E-17
     -1.06553720207064E-15   0.00000000000000E+00   0.00000000000000E+00   0.00000000000000E+00   0.00000000000000E+00
     -2.28943282572937E-17  -1.13921994191649E-16  -1.36816322448942E-16  -1.91849416356948E-15
      1.58026773133214E-01
      1.26421418506571E-01   1.26421418506572E-01   0.00000000000000E+00   0.00000000000000E+00   1.89710786292969E-16
      2.19666371513751E-19   1.89930452664483E-16   3.01966139749663E-15   0.00000000000000E+00   0.00000000000000E+00
      0.00000000000000E+00   0.00000000000000E+00  -1.02981642573225E-18  -1.80971504550242E-17  -1.91269668807564E-17
     -1.10078456121163E-15   0.00000000000000E+00   0.00000000000000E+00   0.00000000000000E+00   0.00000000000000E+00
     -2.29523293908473E-17  -1.47851156392879E-16  -1.70803485783726E-16  -1.91887683628500E-15
      2.28816795791517E-01
      1.83053436633213E-01   1.83053436633213E-01   0.00000000000000E+00   0.00000000000000E+00   2.30776764700491E-16
      4.11740365110347E-19   2.31188505065601E-16   3.06728958518339E-15   0.00000000000000E+00   0.00000000000000E+00
      0.00000000000000E+00   0.00000000000000E+00  -1.03566829740994E-18  -2.29243073628658E-17  -2.39599756602757E-17
     -1.14788717594164E-15   0.00000000000000E+00   0.00000000000000E+00   0.00000000000000E+00   0.00000000000000E+00
     -2.29524575025061E-17  -1.84276071902819E-16  -2.07228529405325E-16  -1.91940240924176E-15
      3.26050824691732E-01
      2.60840659753386E-01   2.60840659753386E-01   0.00000000000000E+00   0.00000000000000E+00   2.80243602841908E-16
      8.51488105553066E-20   2.80328751652464E-16   3.13054186613286E-15   0.00000000000000E+00   0.00000000000000E+00
      0.00000000000000E+00   0.00000000000000E+00  -1.03625189900833E-18  -2.89586561049608E-17  -2.99949080039691E-17
     -1.21041759871479E-15   0.00000000000000E+00   0.00000000000000E+00   0.00000000000000E+00   0.00000000000000E+00
     -2.29524454093407E-17  -2.27381398239154E-16  -2.50333843648494E-16  -1.92012426741807E-15
      4.26050824691732E-01
      3.40840659753386E-01   3.40840659753386E-01   0.00000000000000E+00   0.00000000000000E+00   3.25859681236519E-16
     -4.46844284065454E-19   3.25412836952453E-16   3.19330887143905E-15   0.00000000000000E+00   0.00000000000000E+00
      0.00000000000000E+00   0.00000000000000E+00  -1.03627803077095E-18  -3.46809920492330E-17  -3.57172700800039E-17
     -1.27244228777183E-15   0.00000000000000E+00   0.00000000000000E+00   0.00000000000000E+00   0.00000000000000E+00
     -2.29524698752072E-17  -2.66743096997242E-16  -2.89695566872449E-16  -1.92086658366722E-15
      5.26050824691732E-01
      4.20840659753386E-01   4.20840659753385E-01   0.00000000000000E+00   0.00000000000000E+00   3.67935696702615E-16
     -7.44303510876633E-21   3.67928253667506E-16   3.25401074823590E-15   0.00000000000000E+00   0.00000000000000E+00
      0.00000000000000E+00   0.00000000000000E+00  -1.03628708443535E-18  -4.00937148755382E-17  -4.11300019599736E-17
     -1.33240199978171E-15   0.00000000000000E+00   0.00000000000000E+00   0.00000000000000E+00   0.00000000000000E+00
     -2.29524939495340E-17  -3.03845757757998E-16  -3.26798251707532E-16  -1.92160874845419E-15
      6.26050824691732E-01
      5.00840659753386E-01   5.00840659753386E-01   0.00000000000000E+00   0.00000000000000E+00   4.07481579438979E-16
      4.83859940995507E-20   4.07529965433079E-16   3.31279039489093E-15   0.00000000000000E+00   0.00000000000000E+00
      0.00000000000000E+00   0.00000000000000E+00  -1.03629549596426E-18  -4.52606609476522E-17  -4.62969564436165E-17
     -1.39043972079790E-15   0.00000000000000E+00   0.00000000000000E+00   0.00000000000000E+00   0.00000000000000E+00
     -2.29525180918282E-17  -3.38280490897634E-16  -3.61233008989462E-16  -1.92235067409303E-15
      7.26050824691732E-01
      5.80840659753386E-01   5.80840659753386E-01   0.00000000000000E+00   0.00000000000000E+00   4.45040681787870E-16
      1.44217818672372E-19   4.45184899606542E-16   3.36968860295931E-15   0.00000000000000E+00   0.00000000000000E+00
      0.00000000000000E+00   0.00000000000000E+00  -1.03630340975606E-18  -5.02235131107957E-17  -5.12598165205517E-17
     -1.44659632440797E-15   0.00000000000000E+00   0.00000000000000E+00   0.00000000000000E+00   0.00000000000000E+00
     -2.29525422614729E-17  -3.70972540824518E-16  -3.93925083085990E-16  -1.92309227855134E-15
      8.26050824691732E-01
      6.60840659753386E-01   6.60840659753386E-01   0.00000000000000E+00   0.00000000000000E+00   4.80956868569975E-16
      5.24414507638233E-19   4.81481283077613E-16   3.42464698599053E-15   0.00000000000000E+00   0.00000000000000E+00
      0.00000000000000E+00   0.00000000000000E+00  -1.03631085025356E-18  -5.51940009119142E-17  -5.62303117621678E-17
     -1.50081349597401E-15   0.00000000000000E+00   0.00000000000000E+00   0.00000000000000E+00   0.00000000000000E+00
     -2.29525664503460E-17  -4.02298404865099E-16  -4.25250971315446E-16  -1.92383349001652E-15
      9.26050824691732E-01
      7.40840659753386E-01   7.40840659753386E-01   0.00000000000000E+00   0.00000000000000E+00   5.15524113745413E-16
      4.80209422932551E-19   5.16004323168346E-16   3.47752181096469E-15   0.00000000000000E+00   0.00000000000000E+00
      0.00000000000000E+00   0.00000000000000E+00  -1.03631776183625E-18  -6.02737297499197E-17  -6.13100475117560E-17
     -1.55294756840331E-15   0.00000000000000E+00   0.00000000000000E+00   0.00000000000000E+00   0.00000000000000E+00
     -2.29525906526553E-17  -4.31741685003934E-16  -4.54694275656589E-16  -1.92457424256139E-15
      1.00000000000000E+00
      8.00000000000000E-01   8.00000000000000E-01   0.00000000000000E+00   0.00000000000000E+00   5.40419065972650E-16
      5.47553886188873E-19   5.40966619858839E-16   3.51518115115419E-15   0.00000000000000E+00   0.00000000000000E+00
      0.00000000000000E+00   0.00000000000000E+00  -1.03632245291806E-18  -6.42803880004099E-17  -6.53167104533280E-17
     -1.59005946570297E-15   0.00000000000000E+00   0.00000000000000E+00   0.00000000000000E+00   0.00000000000000E+00
     -2.29526085555897E-17  -4.52697300849921E-16  -4.75649909405511E-16  -1.92512168545121E-15
}
