DF-ISE text

Info {
  version   = 1.0
  type      = xyplot
  datasets  = [
    "time"
    "Ntop OuterVoltage" "Ntop InnerVoltage" "Ntop QuasiFermiPotential" "Ntop DisplacementCurrent" "Ntop eCurrent"
    "Ntop hCurrent" "Ntop TotalCurrent" "Ntop Charge" "Ptop OuterVoltage" "Ptop InnerVoltage"
    "Ptop QuasiFermiPotential" "Ptop DisplacementCurrent" "Ptop eCurrent" "Ptop hCurrent" "Ptop TotalCurrent"
    "Ptop Charge" "Pbot OuterVoltage" "Pbot InnerVoltage" "Pbot QuasiFermiPotential" "Pbot DisplacementCurrent"
    "Pbot eCurrent" "Pbot hCurrent" "Pbot TotalCurrent" "Pbot Charge" ]
  functions = [
    Time
    OuterVoltage InnerVoltage QuasiFermiPotential DisplacementCurrent eCurrent
    hCurrent TotalCurrent Charge OuterVoltage InnerVoltage
    QuasiFermiPotential DisplacementCurrent eCurrent hCurrent TotalCurrent
    Charge OuterVoltage InnerVoltage QuasiFermiPotential DisplacementCurrent
    eCurrent hCurrent TotalCurrent Charge ]
}

Data {
      0.00000000000000E+00
      0.00000000000000E+00   0.00000000000000E+00   0.00000000000000E+00   0.00000000000000E+00   6.77576813592910E-26
     -4.53703544802187E-18  -4.53703538026419E-18   4.83420388079660E-15   0.00000000000000E+00   0.00000000000000E+00
      0.00000000000000E+00   0.00000000000000E+00  -6.77567527138124E-26   1.26460639890762E-19   1.26460572134010E-19
     -2.91650069977686E-15   0.00000000000000E+00   0.00000000000000E+00   0.00000000000000E+00   0.00000000000000E+00
     -9.42256555742434E-31   4.41057480813112E-18   4.41057480813018E-18  -1.91770318101974E-15
      0.00000000000000E+00
      0.00000000000000E+00   0.00000000000000E+00   0.00000000000000E+00   0.00000000000000E+00  -4.70951888521012E-27
     -1.49612046134541E-19  -1.49612050844059E-19   4.83420388089997E-15   0.00000000000000E+00   0.00000000000000E+00
      0.00000000000000E+00   0.00000000000000E+00   4.71166009350793E-27  -9.82201100050156E-22  -9.82196388390063E-22
     -2.91650069977685E-15   0.00000000000000E+00   0.00000000000000E+00   0.00000000000000E+00   0.00000000000000E+00
     -1.64928630012966E-30   1.50594247234099E-19   1.50594247232450E-19  -1.91770318112312E-15
      1.00000000000000E-02
      8.00000000000000E-03   7.99999999999997E-03   0.00000000000000E+00   0.00000000000000E+00   2.77408672608582E-17
     -2.83950492638335E-19   2.74569167682198E-17   4.86040370669599E-15   0.00000000000000E+00   0.00000000000000E+00
      0.00000000000000E+00   0.00000000000000E+00  -2.79501522347469E-19  -2.16931230916239E-18  -2.44881383150985E-18
     -2.94262621711530E-15   0.00000000000000E+00   0.00000000000000E+00   0.00000000000000E+00   0.00000000000000E+00
     -6.88169979496245E-18  -1.81264031417475E-17  -2.50081029367100E-17  -1.91777748958069E-15
      2.37355555555556E-02
      1.89884444444444E-02   1.89884444444444E-02   0.00000000000000E+00   0.00000000000000E+00   5.81553772488642E-17
      1.21122087396290E-18   5.93665981228271E-17   4.89629071817958E-15   0.00000000000000E+00   0.00000000000000E+00
      0.00000000000000E+00   0.00000000000000E+00  -5.45529114775319E-19  -4.64476038383788E-18  -5.19028949861320E-18
     -2.97841117550533E-15   0.00000000000000E+00   0.00000000000000E+00   0.00000000000000E+00   0.00000000000000E+00
     -1.33730849220039E-17  -4.08032237022101E-17  -5.41763086242140E-17  -1.91787954267425E-15
      4.28523965432099E-02
      3.42819172345679E-02   3.42819172345679E-02   0.00000000000000E+00   0.00000000000000E+00   9.01033683233983E-17
     -1.14925147800487E-18   8.89541168453934E-17   4.94605018378130E-15   0.00000000000000E+00   0.00000000000000E+00
      0.00000000000000E+00   0.00000000000000E+00  -7.68468387874633E-19  -7.42857739262238E-18  -8.19704578049702E-18
     -3.02802862816891E-15   0.00000000000000E+00   0.00000000000000E+00   0.00000000000000E+00   0.00000000000000E+00
     -1.86432158750513E-17  -6.21138551898451E-17  -8.07570710648964E-17  -1.91802155561240E-15
      6.94587910111385E-02
      5.55670328089108E-02   5.55670328089109E-02   0.00000000000000E+00   0.00000000000000E+00   1.22140528225717E-16
     -2.84314866153883E-19   1.21856213359563E-16   5.01495421528138E-15   0.00000000000000E+00   0.00000000000000E+00
      0.00000000000000E+00   0.00000000000000E+00  -9.21698492927466E-19  -1.04081066860716E-17  -1.13298051789990E-17
     -3.09673504322402E-15   0.00000000000000E+00   0.00000000000000E+00   0.00000000000000E+00   0.00000000000000E+00
     -2.18522745199646E-17  -8.86741336605992E-17  -1.10526408180564E-16  -1.91821917205735E-15
      1.06488979578391E-01
      8.51911836627130E-02   8.51911836627130E-02   0.00000000000000E+00   0.00000000000000E+00   1.54333426281192E-16
      2.54397369768459E-19   1.54587823650960E-16   5.11020523480884E-15   0.00000000000000E+00   0.00000000000000E+00
      0.00000000000000E+00   0.00000000000000E+00  -1.00154033964268E-18  -1.38656630879035E-17  -1.48672034275462E-17
     -3.19171107124233E-15   0.00000000000000E+00   0.00000000000000E+00   0.00000000000000E+00   0.00000000000000E+00
     -2.28941089785790E-17  -1.16826511244835E-16  -1.39720620223414E-16  -1.91849416356651E-15
      1.57352000808211E-01
      1.25881600646569E-01   1.25881600646569E-01   0.00000000000000E+00   0.00000000000000E+00   1.89012244795598E-16
      1.21452448236711E-18   1.90226769277965E-16   5.23987377546834E-15   0.00000000000000E+00   0.00000000000000E+00
      0.00000000000000E+00   0.00000000000000E+00  -1.02967122061674E-18  -1.77481521810345E-17  -1.87778234016512E-17
     -3.32100194917018E-15   0.00000000000000E+00   0.00000000000000E+00   0.00000000000000E+00   0.00000000000000E+00
     -2.29523266394019E-17  -1.48496619236912E-16  -1.71448945876314E-16  -1.91887182629815E-15
      2.27215186190770E-01
      1.81772148952616E-01   1.81772148952616E-01   0.00000000000000E+00   0.00000000000000E+00   2.29601571327287E-16
      9.09732711163073E-20   2.29692544598403E-16   5.41591131806481E-15   0.00000000000000E+00   0.00000000000000E+00
      0.00000000000000E+00   0.00000000000000E+00  -1.03563428733399E-18  -2.25041223938495E-17  -2.35397566811835E-17
     -3.49652079945819E-15   0.00000000000000E+00   0.00000000000000E+00   0.00000000000000E+00   0.00000000000000E+00
     -2.29524592018468E-17  -1.83200328715373E-16  -2.06152787917219E-16  -1.91939051860663E-15
      3.23176152601792E-01
      2.58540922081434E-01   2.58540922081434E-01   0.00000000000000E+00   0.00000000000000E+00   2.78525212562928E-16
     -4.42628606175394E-19   2.78082583956753E-16   5.65398711504001E-15   0.00000000000000E+00   0.00000000000000E+00
      0.00000000000000E+00   0.00000000000000E+00  -1.03624940795509E-18  -2.84659691876251E-17  -2.95022185955802E-17
     -3.73388418821800E-15   0.00000000000000E+00   0.00000000000000E+00   0.00000000000000E+00   0.00000000000000E+00
     -2.29524447651029E-17  -2.25627920596070E-16  -2.48580365361172E-16  -1.92010292682200E-15
      4.23176152601792E-01
      3.38540922081434E-01   3.38540922081433E-01   0.00000000000000E+00   0.00000000000000E+00   3.24255143598062E-16
      4.08546937203060E-19   3.24663690535265E-16   5.89751301202035E-15   0.00000000000000E+00   0.00000000000000E+00
      0.00000000000000E+00   0.00000000000000E+00  -1.03627753826863E-18  -3.42115491210289E-17  -3.52478266592976E-17
     -3.97666776587477E-15   0.00000000000000E+00   0.00000000000000E+00   0.00000000000000E+00   0.00000000000000E+00
     -2.29524691859565E-17  -2.66463394690011E-16  -2.89415863875968E-16  -1.92084524614556E-15
      5.23176152601792E-01
      4.18540922081434E-01   4.18540922081434E-01   0.00000000000000E+00   0.00000000000000E+00   3.66441230231152E-16
      1.94804094110830E-19   3.66636034325263E-16   6.13615351588006E-15   0.00000000000000E+00   0.00000000000000E+00
      0.00000000000000E+00   0.00000000000000E+00  -1.03628662525843E-18  -3.96406180178651E-17  -4.06769046431235E-17
     -4.21456609945860E-15   0.00000000000000E+00   0.00000000000000E+00   0.00000000000000E+00   0.00000000000000E+00
     -2.29524932560840E-17  -3.03006636426055E-16  -3.25959129682139E-16  -1.92158741642142E-15
      6.23176152601792E-01
      4.98540922081434E-01   4.98540922081434E-01   0.00000000000000E+00   0.00000000000000E+00   4.06097941162141E-16
     -1.64250248795151E-19   4.05933690913346E-16   6.36989987112761E-15   0.00000000000000E+00   0.00000000000000E+00
      0.00000000000000E+00   0.00000000000000E+00  -1.03629503414413E-18  -4.48477094134407E-17  -4.58840044475848E-17
     -4.44757052120890E-15   0.00000000000000E+00   0.00000000000000E+00   0.00000000000000E+00   0.00000000000000E+00
     -2.29525173973708E-17  -3.37097169068391E-16  -3.60049686465761E-16  -1.92232934991869E-15
      7.23176152601792E-01
      5.78540922081434E-01   5.78540922081434E-01   0.00000000000000E+00   0.00000000000000E+00   4.43815434500995E-16
      4.15530136860267E-19   4.44230964637856E-16   6.59938392927738E-15   0.00000000000000E+00   0.00000000000000E+00
      0.00000000000000E+00   0.00000000000000E+00  -1.03630293376875E-18  -4.99472813457443E-17  -5.09835842795130E-17
     -4.67631296511261E-15   0.00000000000000E+00   0.00000000000000E+00   0.00000000000000E+00   0.00000000000000E+00
     -2.29525415663484E-17  -3.70294838791994E-16  -3.93247380358343E-16  -1.92307096416476E-15
      8.23176152601792E-01
      6.58540922081434E-01   6.58540922081434E-01   0.00000000000000E+00   0.00000000000000E+00   4.79950789382211E-16
     -6.26162756929415E-20   4.79888173106518E-16   6.82530718708331E-15   0.00000000000000E+00   0.00000000000000E+00
      0.00000000000000E+00   0.00000000000000E+00  -1.03631035563403E-18  -5.50746800759517E-17  -5.61109904315857E-17
     -4.90149500042055E-15   0.00000000000000E+00   0.00000000000000E+00   0.00000000000000E+00   0.00000000000000E+00
     -2.29525657547151E-17  -4.00824616920218E-16  -4.23777182674933E-16  -1.92381218666275E-15
      9.23176152601792E-01
      7.38540922081434E-01   7.38540922081433E-01   0.00000000000000E+00   0.00000000000000E+00   5.14770877983882E-16
      5.10302609683561E-19   5.15281180593565E-16   7.04791983300642E-15   0.00000000000000E+00   0.00000000000000E+00
      0.00000000000000E+00   0.00000000000000E+00  -1.03631724532181E-18  -6.03789080841820E-17  -6.14152253295038E-17
     -5.12336688262923E-15   0.00000000000000E+00   0.00000000000000E+00   0.00000000000000E+00   0.00000000000000E+00
     -2.29525899566155E-17  -4.30913365307446E-16  -4.53865955264062E-16  -1.92455295037717E-15
      1.00000000000000E+00
      8.00000000000000E-01   8.00000000000000E-01   0.00000000000000E+00   0.00000000000000E+00   5.40842839636139E-16
      6.67993402737828E-19   5.41510833038877E-16   7.21666794918812E-15   0.00000000000000E+00   0.00000000000000E+00
      0.00000000000000E+00   0.00000000000000E+00  -1.03632208019346E-18  -6.47170247129644E-17  -6.57533467931578E-17
     -5.29154627391639E-15   0.00000000000000E+00   0.00000000000000E+00   0.00000000000000E+00   0.00000000000000E+00
     -2.29526085552569E-17  -4.52804877690462E-16  -4.75757486245719E-16  -1.92512167527172E-15
}
