DF-ISE text

Info {
  version   = 1.0
  type      = xyplot
  datasets  = [
    "time"
    "Ntop OuterVoltage" "Ntop InnerVoltage" "Ntop QuasiFermiPotential" "Ntop DisplacementCurrent" "Ntop eCurrent"
    "Ntop hCurrent" "Ntop TotalCurrent" "Ntop Charge" "Ptop OuterVoltage" "Ptop InnerVoltage"
    "Ptop QuasiFermiPotential" "Ptop DisplacementCurrent" "Ptop eCurrent" "Ptop hCurrent" "Ptop TotalCurrent"
    "Ptop Charge" "Pbot OuterVoltage" "Pbot InnerVoltage" "Pbot QuasiFermiPotential" "Pbot DisplacementCurrent"
    "Pbot eCurrent" "Pbot hCurrent" "Pbot TotalCurrent" "Pbot Charge" ]
  functions = [
    Time
    OuterVoltage InnerVoltage QuasiFermiPotential DisplacementCurrent eCurrent
    hCurrent TotalCurrent Charge OuterVoltage InnerVoltage
    QuasiFermiPotential DisplacementCurrent eCurrent hCurrent TotalCurrent
    Charge OuterVoltage InnerVoltage QuasiFermiPotential DisplacementCurrent
    eCurrent hCurrent TotalCurrent Charge ]
}

Data {
      0.00000000000000E+00
      0.00000000000000E+00   0.00000000000000E+00   0.00000000000000E+00   0.00000000000000E+00  -1.24761660431646E-25
     -4.48883282257068E-18  -4.48883294733234E-18   2.84891540403247E-15   0.00000000000000E+00   0.00000000000000E+00
      0.00000000000000E+00   0.00000000000000E+00   1.24746565756713E-25   1.75074649124796E-19   1.75074773871362E-19
     -9.31212223017206E-16   0.00000000000000E+00   0.00000000000000E+00   0.00000000000000E+00   0.00000000000000E+00
      1.50756276135926E-29   4.31375817344590E-18   4.31375817346098E-18  -1.91770318101526E-15
      0.00000000000000E+00
      0.00000000000000E+00   0.00000000000000E+00   0.00000000000000E+00   0.00000000000000E+00   3.69475740465197E-26
     -3.23127066415661E-19  -3.23127029468087E-19   2.84891540413584E-15   0.00000000000000E+00   0.00000000000000E+00
      0.00000000000000E+00   0.00000000000000E+00  -3.69485035176712E-26   3.94743505119739E-22   3.94706556616221E-22
     -9.31212223017215E-16   0.00000000000000E+00   0.00000000000000E+00   0.00000000000000E+00   0.00000000000000E+00
      1.41377136331050E-30   3.22732322910057E-19   3.22732322911471E-19  -1.91770318111863E-15
      1.00000000000000E-02
      8.00000000000000E-03   7.99999999999997E-03   0.00000000000000E+00   0.00000000000000E+00   2.78336380390043E-17
      2.45280174371448E-18   3.02864397827187E-17   2.85814711943227E-15   0.00000000000000E+00   0.00000000000000E+00
      0.00000000000000E+00   0.00000000000000E+00  -2.79520380532543E-19  -2.26640506664871E-18  -2.54592544718125E-18
     -9.40369629856616E-16   0.00000000000000E+00   0.00000000000000E+00   0.00000000000000E+00   0.00000000000000E+00
     -6.88169979287505E-18  -2.08588145426624E-17  -2.77405143355375E-17  -1.91777748957566E-15
      2.37355555555556E-02
      1.89884444444444E-02   1.89884444444444E-02   0.00000000000000E+00   0.00000000000000E+00   5.83569716204159E-17
      5.17480812590410E-19   5.88744524330064E-17   2.87075686430407E-15   0.00000000000000E+00   0.00000000000000E+00
      0.00000000000000E+00   0.00000000000000E+00  -5.45546384579455E-19  -4.87334208424357E-18  -5.41888846882302E-18
     -9.52877321635685E-16   0.00000000000000E+00   0.00000000000000E+00   0.00000000000000E+00   0.00000000000000E+00
     -1.33730849191844E-17  -4.00824790449988E-17  -5.34555639641833E-17  -1.91787954266839E-15
      4.28523965432099E-02
      3.42819172345679E-02   3.42819172345679E-02   0.00000000000000E+00   0.00000000000000E+00   9.04289801309768E-17
     -1.35712773298642E-18   8.90718523979903E-17   2.88817567353744E-15   0.00000000000000E+00   0.00000000000000E+00
      0.00000000000000E+00   0.00000000000000E+00  -7.68493323372845E-19  -7.78295850221427E-18  -8.55145182558711E-18
     -9.70154117932236E-16   0.00000000000000E+00   0.00000000000000E+00   0.00000000000000E+00   0.00000000000000E+00
     -1.86432158727780E-17  -6.18771846996252E-17  -8.05204005724032E-17  -1.91802155560521E-15
      6.94587910111385E-02
      5.55670328089108E-02   5.55670328089109E-02   0.00000000000000E+00   0.00000000000000E+00   1.22601567382190E-16
      1.78315098543182E-18   1.24384718367621E-16   2.91217644147013E-15   0.00000000000000E+00   0.00000000000000E+00
      0.00000000000000E+00   0.00000000000000E+00  -9.21736397692325E-19  -1.09464382661399E-17  -1.18681746638322E-17
     -9.93957269422231E-16   0.00000000000000E+00   0.00000000000000E+00   0.00000000000000E+00   0.00000000000000E+00
     -2.18522745189196E-17  -9.06642691848696E-17  -1.12516543703789E-16  -1.91821917204789E-15
      1.06488979578391E-01
      8.51911836627130E-02   8.51911836627130E-02   0.00000000000000E+00   0.00000000000000E+00   1.54937390476353E-16
     -7.31469283093849E-20   1.54864243548044E-16   2.94513906842127E-15   0.00000000000000E+00   0.00000000000000E+00
      0.00000000000000E+00   0.00000000000000E+00  -1.00157130360374E-18  -1.45077945456127E-17  -1.55093658492164E-17
     -1.02664490486843E-15   0.00000000000000E+00   0.00000000000000E+00   0.00000000000000E+00   0.00000000000000E+00
     -2.28941089784478E-17  -1.16460768720380E-16  -1.39354877698827E-16  -1.91849416355285E-15
      1.57352000808211E-01
      1.25881600646569E-01   1.25881600646569E-01   0.00000000000000E+00   0.00000000000000E+00   1.89762800756904E-16
      1.30253244215354E-19   1.89893054001119E-16   2.98964228594203E-15   0.00000000000000E+00   0.00000000000000E+00
      0.00000000000000E+00   0.00000000000000E+00  -1.02970290372904E-18  -1.85439458351753E-17  -1.95736487389043E-17
     -1.07077045966607E-15   0.00000000000000E+00   0.00000000000000E+00   0.00000000000000E+00   0.00000000000000E+00
     -2.29523266394011E-17  -1.47367078622813E-16  -1.70319405262215E-16  -1.91887182627596E-15
      2.27215186190770E-01
      1.81772148952616E-01   1.81772148952616E-01   0.00000000000000E+00   0.00000000000000E+00   2.30510298365976E-16
      1.16855385330373E-19   2.30627153751306E-16   3.04944761800187E-15   0.00000000000000E+00   0.00000000000000E+00
      0.00000000000000E+00   0.00000000000000E+00  -1.03566566290555E-18  -2.34602169803200E-17  -2.44958826432255E-17
     -1.13005709943718E-15   0.00000000000000E+00   0.00000000000000E+00   0.00000000000000E+00   0.00000000000000E+00
     -2.29524592018456E-17  -1.83178811906235E-16  -2.06131271108081E-16  -1.91939051856469E-15
      3.23176152601792E-01
      2.58540922081434E-01   2.58540922081434E-01   0.00000000000000E+00   0.00000000000000E+00   2.79643352573020E-16
      9.65597527936297E-19   2.80608950100957E-16   3.12936321657255E-15   0.00000000000000E+00   0.00000000000000E+00
      0.00000000000000E+00   0.00000000000000E+00  -1.03628020114584E-18  -2.96261150497660E-17  -3.06623952509119E-17
     -1.20926028984695E-15   0.00000000000000E+00   0.00000000000000E+00   0.00000000000000E+00   0.00000000000000E+00
     -2.29524447651000E-17  -2.26994110084945E-16  -2.49946554850045E-16  -1.92010292672561E-15
      4.23176152601792E-01
      3.38540922081434E-01   3.38540922081433E-01   0.00000000000000E+00   0.00000000000000E+00   3.25592085268335E-16
      1.76742954046987E-19   3.25768828222382E-16   3.21016908769082E-15   0.00000000000000E+00   0.00000000000000E+00
      0.00000000000000E+00   0.00000000000000E+00  -1.03630822897205E-18  -3.55963404117880E-17  -3.66326486407600E-17
     -1.28932384176599E-15   0.00000000000000E+00   0.00000000000000E+00   0.00000000000000E+00   0.00000000000000E+00
     -2.29524691859495E-17  -2.66183710395672E-16  -2.89136179581622E-16  -1.92084524592484E-15
      5.23176152601792E-01
      4.18540922081434E-01   4.18540922081434E-01   0.00000000000000E+00   0.00000000000000E+00   3.67949754459114E-16
      4.14698596135195E-19   3.68364453055250E-16   3.28863275543360E-15   0.00000000000000E+00   0.00000000000000E+00
      0.00000000000000E+00   0.00000000000000E+00  -1.03631728157431E-18  -4.11968734197375E-17  -4.22331907013118E-17
     -1.36704533950453E-15   0.00000000000000E+00   0.00000000000000E+00   0.00000000000000E+00   0.00000000000000E+00
     -2.29524932560678E-17  -3.03178769097870E-16  -3.26131262353938E-16  -1.92158741592906E-15
      6.23176152601792E-01
      4.98540922081434E-01   4.98540922081434E-01   0.00000000000000E+00   0.00000000000000E+00   4.07745219240673E-16
      8.31407347843927E-19   4.08576626588516E-16   3.36482264059755E-15   0.00000000000000E+00   0.00000000000000E+00
      0.00000000000000E+00   0.00000000000000E+00  -1.03632565060389E-18  -4.65439577293243E-17  -4.75802833799282E-17
     -1.44249329176216E-15   0.00000000000000E+00   0.00000000000000E+00   0.00000000000000E+00   0.00000000000000E+00
     -2.29525173973357E-17  -3.38043825811253E-16  -3.60996343208588E-16  -1.92232934883539E-15
      7.23176152601792E-01
      5.78540922081434E-01   5.78540922081434E-01   0.00000000000000E+00   0.00000000000000E+00   4.45581321521836E-16
      1.36503532373969E-18   4.46946356845576E-16   3.43869880637883E-15   0.00000000000000E+00   0.00000000000000E+00
      0.00000000000000E+00   0.00000000000000E+00  -1.03633350020196E-18  -5.17590234650961E-17  -5.27953569652980E-17
     -1.51562784459557E-15   0.00000000000000E+00   0.00000000000000E+00   0.00000000000000E+00   0.00000000000000E+00
     -2.29525415662709E-17  -3.71198458314007E-16  -3.94150999880278E-16  -1.92307096178326E-15
      8.23176152601792E-01
      6.58540922081434E-01   6.58540922081434E-01   0.00000000000000E+00   0.00000000000000E+00   4.81812485794513E-16
      8.50083182999245E-19   4.82662568977512E-16   3.51011298301285E-15   0.00000000000000E+00   0.00000000000000E+00
      0.00000000000000E+00   0.00000000000000E+00  -1.03634086943314E-18  -5.69884523244333E-17  -5.80247931938664E-17
     -1.58630080165309E-15   0.00000000000000E+00   0.00000000000000E+00   0.00000000000000E+00   0.00000000000000E+00
     -2.29525657545421E-17  -4.01685210029103E-16  -4.24637775783645E-16  -1.92381218135977E-15
      9.23176152601792E-01
      7.38540922081434E-01   7.38540922081433E-01   0.00000000000000E+00   0.00000000000000E+00   5.16738594965263E-16
     -7.12578212174255E-21   5.16731469183142E-16   3.57882026767371E-15   0.00000000000000E+00   0.00000000000000E+00
      0.00000000000000E+00   0.00000000000000E+00  -1.03634767717792E-18  -6.24100678516962E-17  -6.34464155288741E-17
     -1.65426732940834E-15   0.00000000000000E+00   0.00000000000000E+00   0.00000000000000E+00   0.00000000000000E+00
     -2.29525899562195E-17  -4.30332463698048E-16  -4.53285053654268E-16  -1.92455293826537E-15
      1.00000000000000E+00
      8.00000000000000E-01   8.00000000000000E-01   0.00000000000000E+00   0.00000000000000E+00   5.42926753976168E-16
      3.37649651320358E-19   5.43264403627488E-16   3.62959221618471E-15   0.00000000000000E+00   0.00000000000000E+00
      0.00000000000000E+00   0.00000000000000E+00  -1.03635242426423E-18  -6.68578188880004E-17  -6.78941713122646E-17
     -1.70447056423038E-15   0.00000000000000E+00   0.00000000000000E+00   0.00000000000000E+00   0.00000000000000E+00
     -2.29526085544938E-17  -4.52417623760730E-16  -4.75370232315224E-16  -1.92512165195432E-15
}
