DF-ISE text

Info {
  version   = 1.0
  type      = xyplot
  datasets  = [
    "time"
    "Ntop OuterVoltage" "Ntop InnerVoltage" "Ntop QuasiFermiPotential" "Ntop DisplacementCurrent" "Ntop eCurrent"
    "Ntop hCurrent" "Ntop TotalCurrent" "Ntop Charge" "Ptop OuterVoltage" "Ptop InnerVoltage"
    "Ptop QuasiFermiPotential" "Ptop DisplacementCurrent" "Ptop eCurrent" "Ptop hCurrent" "Ptop TotalCurrent"
    "Ptop Charge" "Pbot OuterVoltage" "Pbot InnerVoltage" "Pbot QuasiFermiPotential" "Pbot DisplacementCurrent"
    "Pbot eCurrent" "Pbot hCurrent" "Pbot TotalCurrent" "Pbot Charge" ]
  functions = [
    Time
    OuterVoltage InnerVoltage QuasiFermiPotential DisplacementCurrent eCurrent
    hCurrent TotalCurrent Charge OuterVoltage InnerVoltage
    QuasiFermiPotential DisplacementCurrent eCurrent hCurrent TotalCurrent
    Charge OuterVoltage InnerVoltage QuasiFermiPotential DisplacementCurrent
    eCurrent hCurrent TotalCurrent Charge ]
}

Data {
      0.00000000000000E+00
      0.00000000000000E+00   0.00000000000000E+00   0.00000000000000E+00   0.00000000000000E+00   1.51955292329965E-26
     -4.25039202744209E-18  -4.25039201224656E-18   3.16392399511735E-15   0.00000000000000E+00   0.00000000000000E+00
      0.00000000000000E+00   0.00000000000000E+00  -1.52044889542977E-26   7.64787030961095E-20   7.64786878916206E-20
     -1.24622081409199E-15   0.00000000000000E+00   0.00000000000000E+00   0.00000000000000E+00   0.00000000000000E+00
      8.95105455173670E-30   4.17391332434598E-18   4.17391332435493E-18  -1.91770318102535E-15
      0.00000000000000E+00
      0.00000000000000E+00   0.00000000000000E+00   0.00000000000000E+00   0.00000000000000E+00  -1.10990550923562E-26
     -8.83883275868354E-20  -8.83883386858905E-20   3.16392399522073E-15   0.00000000000000E+00   0.00000000000000E+00
      0.00000000000000E+00   0.00000000000000E+00   1.11000159805124E-26   2.32109103530623E-21   2.32110213532221E-21
     -1.24622081409200E-15   0.00000000000000E+00   0.00000000000000E+00   0.00000000000000E+00   0.00000000000000E+00
     -4.70838741908113E-31   8.60672365510391E-20   8.60672365505682E-20  -1.91770318112873E-15
      1.00000000000000E-02
      8.00000000000000E-03   7.99999999999997E-03   0.00000000000000E+00   0.00000000000000E+00   2.76990437707777E-17
      3.20442814089114E-18   3.09034719116689E-17   3.17452485018530E-15   0.00000000000000E+00   0.00000000000000E+00
      0.00000000000000E+00   0.00000000000000E+00  -2.79511845782983E-19  -2.09817405542394E-18  -2.37768590120692E-18
     -1.25674736059827E-15   0.00000000000000E+00   0.00000000000000E+00   0.00000000000000E+00   0.00000000000000E+00
     -6.88169979990520E-18  -2.16440862105567E-17  -2.85257860104619E-17  -1.91777748958703E-15
      2.37355555555556E-02
      1.89884444444444E-02   1.89884444444444E-02   0.00000000000000E+00   0.00000000000000E+00   5.80616259709152E-17
      1.97724501121533E-18   6.00388709821306E-17   3.18904434425822E-15   0.00000000000000E+00   0.00000000000000E+00
      0.00000000000000E+00   0.00000000000000E+00  -5.45529391541359E-19  -4.52097406647113E-18  -5.06650345801249E-18
     -1.27116480157654E-15   0.00000000000000E+00   0.00000000000000E+00   0.00000000000000E+00   0.00000000000000E+00
     -1.33730849288538E-17  -4.15992825952643E-17  -5.49723675241181E-17  -1.91787954268168E-15
      4.28523965432099E-02
      3.42819172345679E-02   3.42819172345679E-02   0.00000000000000E+00   0.00000000000000E+00   8.99450959089744E-17
     -8.10985685220934E-19   8.91341102237535E-17   3.20917562308934E-15   0.00000000000000E+00   0.00000000000000E+00
      0.00000000000000E+00   0.00000000000000E+00  -7.68468128875532E-19  -7.24282669848806E-18  -8.01129482736359E-18
     -1.29115406746776E-15   0.00000000000000E+00   0.00000000000000E+00   0.00000000000000E+00   0.00000000000000E+00
     -1.86432158808025E-17  -6.24795995155874E-17  -8.11228153963899E-17  -1.91802155562159E-15
      6.94587910111385E-02
      5.55670328089108E-02   5.55670328089109E-02   0.00000000000000E+00   0.00000000000000E+00   1.21902138872692E-16
     -9.69196032746446E-20   1.21805219269417E-16   3.23705263889231E-15   0.00000000000000E+00   0.00000000000000E+00
      0.00000000000000E+00   0.00000000000000E+00  -9.21695803464397E-19  -1.04862179386924E-17  -1.14079137421568E-17
     -1.31883346682279E-15   0.00000000000000E+00   0.00000000000000E+00   0.00000000000000E+00   0.00000000000000E+00
     -2.18522745227747E-17  -8.85450310044857E-17  -1.10397305527260E-16  -1.91821917206953E-15
      1.06488979578391E-01
      8.51911836627130E-02   8.51911836627130E-02   0.00000000000000E+00   0.00000000000000E+00   1.53994616504154E-16
      3.02982574544864E-19   1.54297599078698E-16   3.27559349934512E-15   0.00000000000000E+00   0.00000000000000E+00
      0.00000000000000E+00   0.00000000000000E+00  -1.00154064655850E-18  -1.34678559639425E-17  -1.44693966105010E-17
     -1.35709933576090E-15   0.00000000000000E+00   0.00000000000000E+00   0.00000000000000E+00   0.00000000000000E+00
     -2.28941089789607E-17  -1.16934093489237E-16  -1.39828202468197E-16  -1.91849416358422E-15
      1.57352000808211E-01
      1.25881600646569E-01   1.25881600646569E-01   0.00000000000000E+00   0.00000000000000E+00   1.88548108694436E-16
     -3.43248060476757E-19   1.88204860633959E-16   3.32807324132288E-15   0.00000000000000E+00   0.00000000000000E+00
      0.00000000000000E+00   0.00000000000000E+00  -1.02967154835141E-18  -1.72215353542817E-17  -1.82512069026331E-17
     -1.40920141499570E-15   0.00000000000000E+00   0.00000000000000E+00   0.00000000000000E+00   0.00000000000000E+00
     -2.29523266394030E-17  -1.47001327091923E-16  -1.69953653731326E-16  -1.91887182632718E-15
      2.27215186190770E-01
      1.81772148952616E-01   1.81772148952616E-01   0.00000000000000E+00   0.00000000000000E+00   2.28988980277223E-16
      5.66057846931449E-20   2.29045586061916E-16   3.39934159043268E-15   0.00000000000000E+00   0.00000000000000E+00
      0.00000000000000E+00   0.00000000000000E+00  -1.03563463382695E-18  -2.18248828933003E-17  -2.28605175271272E-17
     -1.47995107177052E-15   0.00000000000000E+00   0.00000000000000E+00   0.00000000000000E+00   0.00000000000000E+00
     -2.29524592018484E-17  -1.83232609332940E-16  -2.06185068534789E-16  -1.91939051866216E-15
      3.23176152601792E-01
      2.58540922081434E-01   2.58540922081434E-01   0.00000000000000E+00   0.00000000000000E+00   2.77776654285091E-16
      1.42539065479046E-19   2.77919193350570E-16   3.49574691273147E-15   0.00000000000000E+00   0.00000000000000E+00
      0.00000000000000E+00   0.00000000000000E+00  -1.03624976151765E-18  -2.76571369987839E-17  -2.86933867603016E-17
     -1.57564398577985E-15   0.00000000000000E+00   0.00000000000000E+00   0.00000000000000E+00   0.00000000000000E+00
     -2.29524447651085E-17  -2.26273361825159E-16  -2.49225806590268E-16  -1.92010292695163E-15
      4.23176152601792E-01
      3.38540922081434E-01   3.38540922081433E-01   0.00000000000000E+00   0.00000000000000E+00   3.23450871656310E-16
     -4.08229281266666E-21   3.23446789363497E-16   3.59438243050913E-15   0.00000000000000E+00   0.00000000000000E+00
      0.00000000000000E+00   0.00000000000000E+00  -1.03627793041360E-18  -3.33389002917278E-17  -3.43751782221414E-17
     -1.67353718406182E-15   0.00000000000000E+00   0.00000000000000E+00   0.00000000000000E+00   0.00000000000000E+00
     -2.29524691859664E-17  -2.66119141955390E-16  -2.89071611141356E-16  -1.92084524644731E-15
      5.23176152601792E-01
      4.18540922081434E-01   4.18540922081434E-01   0.00000000000000E+00   0.00000000000000E+00   3.65604294624845E-16
      5.78784915007535E-19   3.66183079539853E-16   3.69111134737466E-15   0.00000000000000E+00   0.00000000000000E+00
      0.00000000000000E+00   0.00000000000000E+00  -1.03628708316415E-18  -3.87250747947955E-17  -3.97613618779596E-17
     -1.76952393026902E-15   0.00000000000000E+00   0.00000000000000E+00   0.00000000000000E+00   0.00000000000000E+00
     -2.29524932561064E-17  -3.03469224405787E-16  -3.26421717661893E-16  -1.92158741710563E-15
      6.23176152601792E-01
      4.98540922081434E-01   4.98540922081434E-01   0.00000000000000E+00   0.00000000000000E+00   4.05181523226991E-16
      1.08855908304853E-18   4.06270082310040E-16   3.78587166853274E-15   0.00000000000000E+00   0.00000000000000E+00
      0.00000000000000E+00   0.00000000000000E+00  -1.03629557364549E-18  -4.38501373606669E-17  -4.48864329343124E-17
     -1.86354231708383E-15   0.00000000000000E+00   0.00000000000000E+00   0.00000000000000E+00   0.00000000000000E+00
     -2.29525173974208E-17  -3.38431131978306E-16  -3.61383649375727E-16  -1.92232935144892E-15
      7.23176152601792E-01
      5.78540922081434E-01   5.78540922081434E-01   0.00000000000000E+00   0.00000000000000E+00   4.42738321837634E-16
     -4.43420619344724E-19   4.42294901218290E-16   3.87857920540753E-15   0.00000000000000E+00   0.00000000000000E+00
      0.00000000000000E+00   0.00000000000000E+00  -1.03630357621724E-18  -4.87857647713956E-17  -4.98220683476128E-17
     -1.95550823782421E-15   0.00000000000000E+00   0.00000000000000E+00   0.00000000000000E+00   0.00000000000000E+00
     -2.29525415664600E-17  -3.69520291304217E-16  -3.92472832870677E-16  -1.92307096758332E-15
      8.23176152601792E-01
      6.58540922081434E-01   6.58540922081434E-01   0.00000000000000E+00   0.00000000000000E+00   4.78615609574425E-16
      5.17716418657176E-19   4.79133325993083E-16   3.96911239972088E-15   0.00000000000000E+00   0.00000000000000E+00
      0.00000000000000E+00   0.00000000000000E+00  -1.03631111838212E-18  -5.36420635193976E-17  -5.46783746377798E-17
     -2.04530020532829E-15   0.00000000000000E+00   0.00000000000000E+00   0.00000000000000E+00   0.00000000000000E+00
     -2.29525657549675E-17  -4.01502385600335E-16  -4.24454951355303E-16  -1.92381219439258E-15
      9.23176152601792E-01
      7.38540922081434E-01   7.38540922081433E-01   0.00000000000000E+00   0.00000000000000E+00   5.13075209760497E-16
     -1.73676600598238E-18   5.11338443754515E-16   4.05730621185901E-15   0.00000000000000E+00   0.00000000000000E+00
      0.00000000000000E+00   0.00000000000000E+00  -1.03631817969101E-18  -5.85876819029809E-17  -5.96240000826719E-17
     -2.13275324358628E-15   0.00000000000000E+00   0.00000000000000E+00   0.00000000000000E+00   0.00000000000000E+00
     -2.29525899572003E-17  -4.28761853714643E-16  -4.51714443671843E-16  -1.92455296827273E-15
      1.00000000000000E+00
      8.00000000000000E-01   8.00000000000000E-01   0.00000000000000E+00   0.00000000000000E+00   5.38787178939367E-16
     -1.38879012282077E-19   5.38648299927085E-16   4.12336000394283E-15   0.00000000000000E+00   0.00000000000000E+00
      0.00000000000000E+00   0.00000000000000E+00  -1.03632317392667E-18  -6.25537165530902E-17  -6.35900397270169E-17
     -2.19823829392721E-15   0.00000000000000E+00   0.00000000000000E+00   0.00000000000000E+00   0.00000000000000E+00
     -2.29526085563935E-17  -4.52105651643675E-16  -4.75058260200069E-16  -1.92512171001562E-15
}
