DF-ISE text

Info {
  version   = 1.0
  type      = xyplot
  datasets  = [
    "time"
    "Ntop OuterVoltage" "Ntop InnerVoltage" "Ntop QuasiFermiPotential" "Ntop DisplacementCurrent" "Ntop eCurrent"
    "Ntop hCurrent" "Ntop TotalCurrent" "Ntop Charge" "Ptop OuterVoltage" "Ptop InnerVoltage"
    "Ptop QuasiFermiPotential" "Ptop DisplacementCurrent" "Ptop eCurrent" "Ptop hCurrent" "Ptop TotalCurrent"
    "Ptop Charge" "Pbot OuterVoltage" "Pbot InnerVoltage" "Pbot QuasiFermiPotential" "Pbot DisplacementCurrent"
    "Pbot eCurrent" "Pbot hCurrent" "Pbot TotalCurrent" "Pbot Charge" ]
  functions = [
    Time
    OuterVoltage InnerVoltage QuasiFermiPotential DisplacementCurrent eCurrent
    hCurrent TotalCurrent Charge OuterVoltage InnerVoltage
    QuasiFermiPotential DisplacementCurrent eCurrent hCurrent TotalCurrent
    Charge OuterVoltage InnerVoltage QuasiFermiPotential DisplacementCurrent
    eCurrent hCurrent TotalCurrent Charge ]
}

Data {
      0.00000000000000E+00
      0.00000000000000E+00   0.00000000000000E+00   0.00000000000000E+00   0.00000000000000E+00  -3.90752884958600E-26
     -4.34889271437642E-18  -4.34889275345171E-18   2.98538904263850E-15   0.00000000000000E+00   0.00000000000000E+00
      0.00000000000000E+00   0.00000000000000E+00   3.90361726278645E-26  -1.86538793399917E-20  -1.86538403038190E-20
     -1.06768586161842E-15   0.00000000000000E+00   0.00000000000000E+00   0.00000000000000E+00   0.00000000000000E+00
      3.91027910418526E-29   4.36754659371642E-18   4.36754659375553E-18  -1.91770318102007E-15
      0.00000000000000E+00
      0.00000000000000E+00   0.00000000000000E+00   0.00000000000000E+00   0.00000000000000E+00   2.23116184440254E-26
     -4.63094859133000E-19  -4.63094836821382E-19   2.98538904274188E-15   0.00000000000000E+00   0.00000000000000E+00
      0.00000000000000E+00   0.00000000000000E+00  -2.23125220235294E-26   1.12796942652748E-20   1.12796719527528E-20
     -1.06768586161844E-15   0.00000000000000E+00   0.00000000000000E+00   0.00000000000000E+00   0.00000000000000E+00
      1.41348209637845E-30   4.51815164867216E-19   4.51815164868629E-19  -1.91770318112345E-15
      1.00000000000000E-02
      8.00000000000000E-03   7.99999999999997E-03   0.00000000000000E+00   0.00000000000000E+00   2.77587019691706E-17
      2.49175912504760E-18   3.02504610942182E-17   2.99363828821666E-15   0.00000000000000E+00   0.00000000000000E+00
      0.00000000000000E+00   0.00000000000000E+00  -2.79511766401363E-19  -2.17665196977206E-18  -2.45616373617343E-18
     -1.07586079863556E-15   0.00000000000000E+00   0.00000000000000E+00   0.00000000000000E+00   0.00000000000000E+00
     -6.88169979897265E-18  -2.09125975590721E-17  -2.77942973580448E-17  -1.91777748958111E-15
      2.37355555555556E-02
      1.89884444444444E-02   1.89884444444444E-02   0.00000000000000E+00   0.00000000000000E+00   5.81925008883763E-17
      1.66604452541448E-18   5.98585454137908E-17   3.00490566981370E-15   0.00000000000000E+00   0.00000000000000E+00
      0.00000000000000E+00   0.00000000000000E+00  -5.45529321636525E-19  -4.69564890076009E-18  -5.24117822239662E-18
     -1.08702612713890E-15   0.00000000000000E+00   0.00000000000000E+00   0.00000000000000E+00   0.00000000000000E+00
     -1.33730849275988E-17  -4.12442822637954E-17  -5.46173671913942E-17  -1.91787954267480E-15
      4.28523965432099E-02
      3.42819172345679E-02   3.42819172345679E-02   0.00000000000000E+00   0.00000000000000E+00   9.01587942816647E-17
     -1.47365346063840E-18   8.86851408210263E-17   3.02046983474643E-15   0.00000000000000E+00   0.00000000000000E+00
      0.00000000000000E+00   0.00000000000000E+00  -7.68468836626855E-19  -7.46081282597519E-18  -8.22928166260205E-18
     -1.10244827913329E-15   0.00000000000000E+00   0.00000000000000E+00   0.00000000000000E+00   0.00000000000000E+00
     -1.86432158797776E-17  -6.18126432786467E-17  -8.04558591584243E-17  -1.91802155561314E-15
      6.94587910111385E-02
      5.55670328089108E-02   5.55670328089109E-02   0.00000000000000E+00   0.00000000000000E+00   1.22207863870137E-16
     -4.16994428401794E-19   1.21790869441735E-16   3.04191563076620E-15   0.00000000000000E+00   0.00000000000000E+00
      0.00000000000000E+00   0.00000000000000E+00  -9.21702600706126E-19  -1.04503336973886E-17  -1.13720362980947E-17
     -1.12369645870781E-15   0.00000000000000E+00   0.00000000000000E+00   0.00000000000000E+00   0.00000000000000E+00
     -2.18522745222953E-17  -8.85665586213451E-17  -1.10418833143640E-16  -1.91821917205839E-15
      1.06488979578391E-01
      8.51911836627130E-02   8.51911836627130E-02   0.00000000000000E+00   0.00000000000000E+00   1.54397609925554E-16
     -3.23241677396999E-18   1.51165193151584E-16   3.07137321296960E-15   0.00000000000000E+00   0.00000000000000E+00
      0.00000000000000E+00   0.00000000000000E+00  -1.00156406495390E-18  -1.24113902866497E-17  -1.34129543516036E-17
     -1.15287904940156E-15   0.00000000000000E+00   0.00000000000000E+00   0.00000000000000E+00   0.00000000000000E+00
     -2.28943282571686E-17  -1.14857910542811E-16  -1.37752238799980E-16  -1.91849416356804E-15
      1.58026773133214E-01
      1.26421418506571E-01   1.26421418506572E-01   0.00000000000000E+00   0.00000000000000E+00   1.89468810545848E-16
      9.08995793411757E-19   1.90377806339260E-16   3.11168258591996E-15   0.00000000000000E+00   0.00000000000000E+00
      0.00000000000000E+00   0.00000000000000E+00  -1.02981625577015E-18  -1.78237488348302E-17  -1.88535650906004E-17
     -1.19280574963741E-15   0.00000000000000E+00   0.00000000000000E+00   0.00000000000000E+00   0.00000000000000E+00
     -2.29523293908472E-17  -1.48571911857812E-16  -1.71524241248659E-16  -1.91887683628254E-15
      2.28816795791517E-01
      1.83053436633213E-01   1.83053436633213E-01   0.00000000000000E+00   0.00000000000000E+00   2.30452552575141E-16
      4.33581965103334E-19   2.30886134540245E-16   3.16588900157620E-15   0.00000000000000E+00   0.00000000000000E+00
      0.00000000000000E+00   0.00000000000000E+00  -1.03566812978352E-18  -2.25789105920085E-17  -2.36145787217920E-17
     -1.24648659233943E-15   0.00000000000000E+00   0.00000000000000E+00   0.00000000000000E+00   0.00000000000000E+00
     -2.29524575025058E-17  -1.84319098315947E-16  -2.07271555818453E-16  -1.91940240923677E-15
      3.26050824691732E-01
      2.60840659753386E-01   2.60840659753386E-01   0.00000000000000E+00   0.00000000000000E+00   2.79830540666996E-16
     -1.03279797206597E-19   2.79727260869790E-16   3.23845327998583E-15   0.00000000000000E+00   0.00000000000000E+00
      0.00000000000000E+00   0.00000000000000E+00  -1.03625173202205E-18  -2.85615715735088E-17  -2.95978233055309E-17
     -1.31832901258031E-15   0.00000000000000E+00   0.00000000000000E+00   0.00000000000000E+00   0.00000000000000E+00
     -2.29524454093399E-17  -2.27176992154919E-16  -2.50129437564259E-16  -1.92012426740553E-15
      4.26050824691732E-01
      3.40840659753386E-01   3.40840659753386E-01   0.00000000000000E+00   0.00000000000000E+00   3.25424416147321E-16
     -2.55001266691227E-19   3.25169414880630E-16   3.31112274520792E-15   0.00000000000000E+00   0.00000000000000E+00
      0.00000000000000E+00   0.00000000000000E+00  -1.03627786195093E-18  -3.42869452771185E-17  -3.53232231390694E-17
     -1.39025616157178E-15   0.00000000000000E+00   0.00000000000000E+00   0.00000000000000E+00   0.00000000000000E+00
     -2.29524698752061E-17  -2.66893721866354E-16  -2.89846191741560E-16  -1.92086658363615E-15
      5.26050824691732E-01
      4.20840659753386E-01   4.20840659753385E-01   0.00000000000000E+00   0.00000000000000E+00   3.67530745208252E-16
      4.69659145059742E-19   3.68000404353312E-16   3.38205204588366E-15   0.00000000000000E+00   0.00000000000000E+00
      0.00000000000000E+00   0.00000000000000E+00  -1.03628691023012E-18  -3.97033299931417E-17  -4.07396169033719E-17
     -1.46044329750418E-15   0.00000000000000E+00   0.00000000000000E+00   0.00000000000000E+00   0.00000000000000E+00
     -2.29524939495316E-17  -3.04308293500409E-16  -3.27260787449940E-16  -1.92160874837950E-15
      6.26050824691732E-01
      5.00840659753386E-01   5.00840659753386E-01   0.00000000000000E+00   0.00000000000000E+00   4.07105308374966E-16
      2.64607342633724E-19   4.07369915717600E-16   3.45138047722582E-15   0.00000000000000E+00   0.00000000000000E+00
      0.00000000000000E+00   0.00000000000000E+00  -1.03629531389276E-18  -4.48962053300157E-17  -4.59325006439085E-17
     -1.52902980330901E-15   0.00000000000000E+00   0.00000000000000E+00   0.00000000000000E+00   0.00000000000000E+00
     -2.29525180918226E-17  -3.38484896981869E-16  -3.61437415073691E-16  -1.92235067391682E-15
      7.26050824691732E-01
      5.80840659753386E-01   5.80840659753386E-01   0.00000000000000E+00   0.00000000000000E+00   4.44669910751783E-16
      4.67198341613397E-19   4.45137109093396E-16   3.51914297534397E-15   0.00000000000000E+00   0.00000000000000E+00
      0.00000000000000E+00   0.00000000000000E+00  -1.03630321474438E-18  -4.98637326627514E-17  -5.09000358774958E-17
     -1.59605069720603E-15   0.00000000000000E+00   0.00000000000000E+00   0.00000000000000E+00   0.00000000000000E+00
     -2.29525422614595E-17  -3.71284530954441E-16  -3.94237073215901E-16  -1.92309227813795E-15
      8.26050824691732E-01
      6.60840659753386E-01   6.60840659753386E-01   0.00000000000000E+00   0.00000000000000E+00   4.80557599465273E-16
      5.43232582589637E-19   4.81100832047862E-16   3.58526869017431E-15   0.00000000000000E+00   0.00000000000000E+00
      0.00000000000000E+00   0.00000000000000E+00  -1.03631064102010E-18  -5.47920386861514E-17  -5.58283493271715E-17
     -1.66143520113582E-15   0.00000000000000E+00   0.00000000000000E+00   0.00000000000000E+00   0.00000000000000E+00
     -2.29525664503144E-17  -4.02319916270376E-16  -4.25272482720691E-16  -1.92383348903849E-15
      9.26050824691732E-01
      7.40840659753386E-01   7.40840659753386E-01   0.00000000000000E+00   0.00000000000000E+00   5.15065096721521E-16
      3.25704485191576E-19   5.15390801206713E-16   3.64959085477190E-15   0.00000000000000E+00   0.00000000000000E+00
      0.00000000000000E+00   0.00000000000000E+00  -1.03631753470951E-18  -5.98323244757242E-17  -6.08686420104337E-17
     -1.72501661457499E-15   0.00000000000000E+00   0.00000000000000E+00   0.00000000000000E+00   0.00000000000000E+00
     -2.29525906525781E-17  -4.31569568543701E-16  -4.54522159196279E-16  -1.92457424019691E-15
      1.00000000000000E+00
      8.00000000000000E-01   8.00000000000000E-01   0.00000000000000E+00   0.00000000000000E+00   5.39919035141251E-16
      6.93127654519595E-19   5.40612162795771E-16   3.69587522408165E-15   0.00000000000000E+00   0.00000000000000E+00
      0.00000000000000E+00   0.00000000000000E+00  -1.03632220367946E-18  -6.37753189266284E-17  -6.48116411303078E-17
     -1.77075354325303E-15   0.00000000000000E+00   0.00000000000000E+00   0.00000000000000E+00   0.00000000000000E+00
     -2.29526085554385E-17  -4.52847913110024E-16  -4.75800521665463E-16  -1.92512168082862E-15
}
