DF-ISE text

Info {
  version   = 1.0
  type      = xyplot
  datasets  = [
    "time"
    "Ntop OuterVoltage" "Ntop InnerVoltage" "Ntop QuasiFermiPotential" "Ntop DisplacementCurrent" "Ntop eCurrent"
    "Ntop hCurrent" "Ntop TotalCurrent" "Ntop Charge" "Ptop OuterVoltage" "Ptop InnerVoltage"
    "Ptop QuasiFermiPotential" "Ptop DisplacementCurrent" "Ptop eCurrent" "Ptop hCurrent" "Ptop TotalCurrent"
    "Ptop Charge" "Pbot OuterVoltage" "Pbot InnerVoltage" "Pbot QuasiFermiPotential" "Pbot DisplacementCurrent"
    "Pbot eCurrent" "Pbot hCurrent" "Pbot TotalCurrent" "Pbot Charge" ]
  functions = [
    Time
    OuterVoltage InnerVoltage QuasiFermiPotential DisplacementCurrent eCurrent
    hCurrent TotalCurrent Charge OuterVoltage InnerVoltage
    QuasiFermiPotential DisplacementCurrent eCurrent hCurrent TotalCurrent
    Charge OuterVoltage InnerVoltage QuasiFermiPotential DisplacementCurrent
    eCurrent hCurrent TotalCurrent Charge ]
}

Data {
      0.00000000000000E+00
      0.00000000000000E+00   0.00000000000000E+00   0.00000000000000E+00   0.00000000000000E+00  -5.75698853375325E-27
     -4.44804876196546E-18  -4.44804876772245E-18   3.14138192229157E-15   0.00000000000000E+00   0.00000000000000E+00
      0.00000000000000E+00   0.00000000000000E+00   5.78453435634934E-27   6.97473662540517E-20   6.97473720385861E-20
     -1.22367874127169E-15   0.00000000000000E+00   0.00000000000000E+00   0.00000000000000E+00   0.00000000000000E+00
     -2.75614457336223E-29   4.37830139571142E-18   4.37830139568386E-18  -1.91770318101987E-15
      0.00000000000000E+00
      0.00000000000000E+00   0.00000000000000E+00   0.00000000000000E+00   0.00000000000000E+00   1.64919139163959E-26
     -5.74869765953157E-19  -5.74869749461243E-19   3.14138192239495E-15   0.00000000000000E+00   0.00000000000000E+00
      0.00000000000000E+00   0.00000000000000E+00  -1.64961094959037E-26   4.71935597550615E-21   4.71933947939665E-21
     -1.22367874127171E-15   0.00000000000000E+00   0.00000000000000E+00   0.00000000000000E+00   0.00000000000000E+00
      4.71128462508215E-30   5.70150409977135E-19   5.70150409981846E-19  -1.91770318112325E-15
      1.00000000000000E-02
      8.00000000000000E-03   7.99999999999997E-03   0.00000000000000E+00   0.00000000000000E+00   2.77100556761152E-17
      2.35515704246232E-18   3.00652127185775E-17   3.15215370798636E-15   0.00000000000000E+00   0.00000000000000E+00
      0.00000000000000E+00   0.00000000000000E+00  -2.79511778118250E-19  -2.13124302938787E-18  -2.41075480750612E-18
     -1.23437621840550E-15   0.00000000000000E+00   0.00000000000000E+00   0.00000000000000E+00   0.00000000000000E+00
     -6.88169979723838E-18  -2.07727581138330E-17  -2.76544579110714E-17  -1.91777748958087E-15
      2.37355555555556E-02
      1.89884444444444E-02   1.89884444444444E-02   0.00000000000000E+00   0.00000000000000E+00   5.80859959186927E-17
      1.82159059262136E-18   5.99075865113141E-17   3.16690459026217E-15   0.00000000000000E+00   0.00000000000000E+00
      0.00000000000000E+00   0.00000000000000E+00  -5.45529322006200E-19  -4.57257173879310E-18  -5.11810106079930E-18
     -1.24902504758769E-15   0.00000000000000E+00   0.00000000000000E+00   0.00000000000000E+00   0.00000000000000E+00
     -1.33730849251997E-17  -4.14164005253150E-17  -5.47894854505147E-17  -1.91787954267449E-15
      4.28523965432099E-02
      3.42819172345679E-02   3.42819172345679E-02   0.00000000000000E+00   0.00000000000000E+00   8.99857899227154E-17
     -9.70099872532372E-19   8.90156900501831E-17   3.18735163499986E-15   0.00000000000000E+00   0.00000000000000E+00
      0.00000000000000E+00   0.00000000000000E+00  -7.68468687042367E-19  -7.33955784958335E-18  -8.10802653662572E-18
     -1.26933007938713E-15   0.00000000000000E+00   0.00000000000000E+00   0.00000000000000E+00   0.00000000000000E+00
     -1.86432158777651E-17  -6.22644476357922E-17  -8.09076635135574E-17  -1.91802155561273E-15
      6.94587910111385E-02
      5.55670328089108E-02   5.55670328089109E-02   0.00000000000000E+00   0.00000000000000E+00   1.21963159619909E-16
      2.08994515480515E-20   1.21984059071457E-16   3.21565662526806E-15   0.00000000000000E+00   0.00000000000000E+00
      0.00000000000000E+00   0.00000000000000E+00  -9.21701411316421E-19  -1.06327769206345E-17  -1.15544783319509E-17
     -1.29743745321025E-15   0.00000000000000E+00   0.00000000000000E+00   0.00000000000000E+00   0.00000000000000E+00
     -2.18522745213139E-17  -8.85773062181923E-17  -1.10429580739506E-16  -1.91821917205782E-15
      1.06488979578391E-01
      8.51911836627130E-02   8.51911836627130E-02   0.00000000000000E+00   0.00000000000000E+00   1.54082015188851E-16
      5.27751159199121E-19   1.54609766348050E-16   3.25477242061065E-15   0.00000000000000E+00   0.00000000000000E+00
      0.00000000000000E+00   0.00000000000000E+00  -1.00154034321707E-18  -1.36079088778848E-17  -1.46094492211018E-17
     -1.33627825704344E-15   0.00000000000000E+00   0.00000000000000E+00   0.00000000000000E+00   0.00000000000000E+00
     -2.28941089787657E-17  -1.17106208148182E-16  -1.40000317126948E-16  -1.91849416356721E-15
      1.57352000808211E-01
      1.25881600646569E-01   1.25881600646569E-01   0.00000000000000E+00   0.00000000000000E+00   1.88672445730546E-16
     -3.85095980971739E-19   1.88287349749575E-16   3.30800606431616E-15   0.00000000000000E+00   0.00000000000000E+00
      0.00000000000000E+00   0.00000000000000E+00  -1.02967122665455E-18  -1.74116124398576E-17  -1.84412836665121E-17
     -1.38913423801685E-15   0.00000000000000E+00   0.00000000000000E+00   0.00000000000000E+00   0.00000000000000E+00
     -2.29523266394018E-17  -1.46893739443661E-16  -1.69846066083063E-16  -1.91887182629932E-15
      2.27215186190770E-01
      1.81772148952616E-01   1.81772148952616E-01   0.00000000000000E+00   0.00000000000000E+00   2.29170631820469E-16
     -3.40788752665888E-19   2.28829843067803E-16   3.38024950027986E-15   0.00000000000000E+00   0.00000000000000E+00
      0.00000000000000E+00   0.00000000000000E+00  -1.03563429520900E-18  -2.20717372239733E-17  -2.31073715191823E-17
     -1.46085898167091E-15   0.00000000000000E+00   0.00000000000000E+00   0.00000000000000E+00   0.00000000000000E+00
     -2.29524592018466E-17  -1.82770012346774E-16  -2.05722471548620E-16  -1.91939051860895E-15
      3.23176152601792E-01
      2.58540922081434E-01   2.58540922081434E-01   0.00000000000000E+00   0.00000000000000E+00   2.78046226028438E-16
      1.28634582231697E-19   2.78174860610670E-16   3.47789274701522E-15   0.00000000000000E+00   0.00000000000000E+00
      0.00000000000000E+00   0.00000000000000E+00  -1.03624941501992E-18  -2.79773460263650E-17  -2.90135954413850E-17
     -1.55778982018751E-15   0.00000000000000E+00   0.00000000000000E+00   0.00000000000000E+00   0.00000000000000E+00
     -2.29524447651037E-17  -2.26208820404181E-16  -2.49161265169285E-16  -1.92010292682771E-15
      4.23176152601792E-01
      3.38540922081434E-01   3.38540922081433E-01   0.00000000000000E+00   0.00000000000000E+00   3.23816340368781E-16
      5.83345888414313E-20   3.23874674957622E-16   3.57770343927043E-15   0.00000000000000E+00   0.00000000000000E+00
      0.00000000000000E+00   0.00000000000000E+00  -1.03627754729608E-18  -3.37774942375142E-17  -3.48137717848103E-17
     -1.65685819311063E-15   0.00000000000000E+00   0.00000000000000E+00   0.00000000000000E+00   0.00000000000000E+00
     -2.29524691859571E-17  -2.66108433986855E-16  -2.89060903172812E-16  -1.92084524615980E-15
      5.23176152601792E-01
      4.18540922081434E-01   4.18540922081434E-01   0.00000000000000E+00   0.00000000000000E+00   3.66069351637192E-16
      6.27092595883348E-19   3.66696444233075E-16   3.67549153497013E-15   0.00000000000000E+00   0.00000000000000E+00
      0.00000000000000E+00   0.00000000000000E+00  -1.03628663666137E-18  -3.92599801604100E-17  -4.02962667970714E-17
     -1.75390411851386E-15   0.00000000000000E+00   0.00000000000000E+00   0.00000000000000E+00   0.00000000000000E+00
     -2.29524932560850E-17  -3.03447684179919E-16  -3.26400177436004E-16  -1.92158741645626E-15
      6.23176152601792E-01
      4.98540922081434E-01   4.98540922081434E-01   0.00000000000000E+00   0.00000000000000E+00   4.05756955253609E-16
      3.82738389704360E-19   4.06139693643313E-16   3.77118553556364E-15   0.00000000000000E+00   0.00000000000000E+00
      0.00000000000000E+00   0.00000000000000E+00  -1.03629504909376E-18  -4.44943201230465E-17  -4.55306151721403E-17
     -1.84885618556064E-15   0.00000000000000E+00   0.00000000000000E+00   0.00000000000000E+00   0.00000000000000E+00
     -2.29525173973738E-17  -3.37656561073799E-16  -3.60609078471172E-16  -1.92232935000301E-15
      7.23176152601792E-01
      5.78540922081434E-01   5.78540922081434E-01   0.00000000000000E+00   0.00000000000000E+00   4.43442088825663E-16
     -1.12476303915001E-19   4.43329612521748E-16   3.86467951359912E-15   0.00000000000000E+00   0.00000000000000E+00
      0.00000000000000E+00   0.00000000000000E+00  -1.03630295552592E-18  -4.95623110117353E-17  -5.05986139672612E-17
     -1.94160854923031E-15   0.00000000000000E+00   0.00000000000000E+00   0.00000000000000E+00   0.00000000000000E+00
     -2.29525415663550E-17  -3.69778456988131E-16  -3.92730998554486E-16  -1.92307096436882E-15
      8.23176152601792E-01
      6.58540922081434E-01   6.58540922081434E-01   0.00000000000000E+00   0.00000000000000E+00   4.79477031587247E-16
      3.47555585866750E-19   4.79824587173113E-16   3.95581536216977E-15   0.00000000000000E+00   0.00000000000000E+00
      0.00000000000000E+00   0.00000000000000E+00  -1.03631037874044E-18  -5.45915703798463E-17  -5.56278807585867E-17
     -2.03200317500670E-15   0.00000000000000E+00   0.00000000000000E+00   0.00000000000000E+00   0.00000000000000E+00
     -2.29525657547314E-17  -4.01244140659796E-16  -4.24196706414527E-16  -1.92381218716305E-15
      9.23176152601792E-01
      7.38540922081434E-01   7.38540922081433E-01   0.00000000000000E+00   0.00000000000000E+00   5.14148395841257E-16
      1.33432285276340E-18   5.15482718694020E-16   4.04437653348024E-15   0.00000000000000E+00   0.00000000000000E+00
      0.00000000000000E+00   0.00000000000000E+00  -1.03631728763578E-18  -5.97521336509640E-17  -6.07884509385998E-17
     -2.11982358184408E-15   0.00000000000000E+00   0.00000000000000E+00   0.00000000000000E+00   0.00000000000000E+00
     -2.29525899566566E-17  -4.31741677798764E-16  -4.54694267755420E-16  -1.92455295163616E-15
      1.00000000000000E+00
      8.00000000000000E-01   8.00000000000000E-01   0.00000000000000E+00   0.00000000000000E+00   5.40083471794462E-16
      5.29444475636679E-19   5.40612916270099E-16   4.11051815151543E-15   0.00000000000000E+00   0.00000000000000E+00
      0.00000000000000E+00   0.00000000000000E+00  -1.03632212980934E-18  -6.39481871338678E-17  -6.49845092636771E-17
     -2.18539647362829E-15   0.00000000000000E+00   0.00000000000000E+00   0.00000000000000E+00   0.00000000000000E+00
     -2.29526085553426E-17  -4.52675798451079E-16  -4.75628407006421E-16  -1.92512167788713E-15
}
