DF-ISE text

Info {
  version   = 1.0
  type      = xyplot
  datasets  = [
    "time"
    "Ntop OuterVoltage" "Ntop InnerVoltage" "Ntop QuasiFermiPotential" "Ntop DisplacementCurrent" "Ntop eCurrent"
    "Ntop hCurrent" "Ntop TotalCurrent" "Ntop Charge" "Ptop OuterVoltage" "Ptop InnerVoltage"
    "Ptop QuasiFermiPotential" "Ptop DisplacementCurrent" "Ptop eCurrent" "Ptop hCurrent" "Ptop TotalCurrent"
    "Ptop Charge" "Pbot OuterVoltage" "Pbot InnerVoltage" "Pbot QuasiFermiPotential" "Pbot DisplacementCurrent"
    "Pbot eCurrent" "Pbot hCurrent" "Pbot TotalCurrent" "Pbot Charge" ]
  functions = [
    Time
    OuterVoltage InnerVoltage QuasiFermiPotential DisplacementCurrent eCurrent
    hCurrent TotalCurrent Charge OuterVoltage InnerVoltage
    QuasiFermiPotential DisplacementCurrent eCurrent hCurrent TotalCurrent
    Charge OuterVoltage InnerVoltage QuasiFermiPotential DisplacementCurrent
    eCurrent hCurrent TotalCurrent Charge ]
}

Data {
      0.00000000000000E+00
      0.00000000000000E+00   0.00000000000000E+00   0.00000000000000E+00   0.00000000000000E+00  -2.90660668193670E-26
     -4.49232625818975E-18  -4.49232628725582E-18   2.84926584570403E-15   0.00000000000000E+00   0.00000000000000E+00
      0.00000000000000E+00   0.00000000000000E+00   2.90509736087087E-26   1.78568084743868E-19   1.78568113794842E-19
     -9.31562664688762E-16   0.00000000000000E+00   0.00000000000000E+00   0.00000000000000E+00   0.00000000000000E+00
      1.50756276133666E-29   4.31375817344590E-18   4.31375817346098E-18  -1.91770318101526E-15
      0.00000000000000E+00
      0.00000000000000E+00   0.00000000000000E+00   0.00000000000000E+00   0.00000000000000E+00   8.09278269470330E-27
     -3.53398561406431E-19  -3.53398553313649E-19   2.84926584580740E-15   0.00000000000000E+00   0.00000000000000E+00
      0.00000000000000E+00   0.00000000000000E+00  -8.09227560321602E-27  -1.60537263689284E-21  -1.60538072916845E-21
     -9.31562664688775E-16   0.00000000000000E+00   0.00000000000000E+00   0.00000000000000E+00   0.00000000000000E+00
      3.86067024411880E-34   3.55003934042817E-19   3.55003934042817E-19  -1.91770318111863E-15
      1.00000000000000E-02
      8.00000000000000E-03   7.99999999999997E-03   0.00000000000000E+00   0.00000000000000E+00   2.78334555643237E-17
      2.58833019276600E-18   3.04217857570897E-17   2.85849859527595E-15   0.00000000000000E+00   0.00000000000000E+00
      0.00000000000000E+00   0.00000000000000E+00  -2.79511760236000E-19  -2.26191301093117E-18  -2.54142477116717E-18
     -9.40721105700296E-16   0.00000000000000E+00   0.00000000000000E+00   0.00000000000000E+00   0.00000000000000E+00
     -6.88169979287328E-18  -2.09986611930493E-17  -2.78803609859226E-17  -1.91777748957566E-15
      2.37355555555556E-02
      1.89884444444444E-02   1.89884444444444E-02   0.00000000000000E+00   0.00000000000000E+00   5.83565488891255E-17
      6.42185567800768E-19   5.89987344569263E-17   2.87110983125753E-15   0.00000000000000E+00   0.00000000000000E+00
      0.00000000000000E+00   0.00000000000000E+00  -5.45529482353028E-19  -4.86855096328638E-18  -5.41408044563941E-18
     -9.53230288589140E-16   0.00000000000000E+00   0.00000000000000E+00   0.00000000000000E+00   0.00000000000000E+00
     -1.33730849191831E-17  -4.02115690921038E-17  -5.35846540112869E-17  -1.91787954266839E-15
      4.28523965432099E-02
      3.42819172345679E-02   3.42819172345679E-02   0.00000000000000E+00   0.00000000000000E+00   9.04282212013264E-17
     -1.00195491496151E-18   8.94262662863649E-17   2.88853084768294E-15   0.00000000000000E+00   0.00000000000000E+00
      0.00000000000000E+00   0.00000000000000E+00  -7.68469578952507E-19  -7.78239760482770E-18  -8.55086718378020E-18
     -9.70509292077739E-16   0.00000000000000E+00   0.00000000000000E+00   0.00000000000000E+00   0.00000000000000E+00
     -1.86432158727775E-17  -6.22321832298072E-17  -8.08753991025847E-17  -1.91802155560521E-15
      6.94587910111385E-02
      5.55670328089108E-02   5.55670328089109E-02   0.00000000000000E+00   0.00000000000000E+00   1.22600321322869E-16
      1.83241632107966E-18   1.24432737643949E-16   2.91253493243039E-15   0.00000000000000E+00   0.00000000000000E+00
      0.00000000000000E+00   0.00000000000000E+00  -9.21707900487766E-19  -1.09514434149623E-17  -1.18731513154500E-17
     -9.94315760382501E-16   0.00000000000000E+00   0.00000000000000E+00   0.00000000000000E+00   0.00000000000000E+00
     -2.18522745189187E-17  -9.07073118095798E-17  -1.12559586328498E-16  -1.91821917204789E-15
      1.06488979578391E-01
      8.51911836627130E-02   8.51911836627130E-02   0.00000000000000E+00   0.00000000000000E+00   1.54935494190904E-16
      2.27518281608466E-19   1.55163012472512E-16   2.94550262331676E-15   0.00000000000000E+00   0.00000000000000E+00
      0.00000000000000E+00   0.00000000000000E+00  -1.00154046437662E-18  -1.45053841993970E-17  -1.55069246637736E-17
     -1.02700845976391E-15   0.00000000000000E+00   0.00000000000000E+00   0.00000000000000E+00   0.00000000000000E+00
     -2.28941089784479E-17  -1.16761978830291E-16  -1.39656087808739E-16  -1.91849416355285E-15
      1.57352000808211E-01
      1.25881600646569E-01   1.25881600646569E-01   0.00000000000000E+00   0.00000000000000E+00   1.89760333781464E-16
      8.83109760880710E-20   1.89848644757552E-16   2.99001358215037E-15   0.00000000000000E+00   0.00000000000000E+00
      0.00000000000000E+00   0.00000000000000E+00  -1.02967132845971E-18  -1.85425963812923E-17  -1.95722677097520E-17
     -1.07114175587441E-15   0.00000000000000E+00   0.00000000000000E+00   0.00000000000000E+00   0.00000000000000E+00
     -2.29523266394010E-17  -1.47324050408399E-16  -1.70276377047800E-16  -1.91887182627596E-15
      2.27215186190770E-01
      1.81772148952616E-01   1.81772148952616E-01   0.00000000000000E+00   0.00000000000000E+00   2.30507839180785E-16
     -9.64897010444158E-19   2.29542942170341E-16   3.04983088649078E-15   0.00000000000000E+00   0.00000000000000E+00
      0.00000000000000E+00   0.00000000000000E+00  -1.03563439017283E-18  -2.34517834620546E-17  -2.44874178522274E-17
     -1.13044036792610E-15   0.00000000000000E+00   0.00000000000000E+00   0.00000000000000E+00   0.00000000000000E+00
     -2.29524592018456E-17  -1.82103065116268E-16  -2.05055524318113E-16  -1.91939051856468E-15
      3.23176152601792E-01
      2.58540922081434E-01   2.58540922081434E-01   0.00000000000000E+00   0.00000000000000E+00   2.79641057216831E-16
      4.73817863703256E-19   2.80114875080534E-16   3.12976515513660E-15   0.00000000000000E+00   0.00000000000000E+00
      0.00000000000000E+00   0.00000000000000E+00  -1.03624949814859E-18  -2.96269177141967E-17  -3.06631672123453E-17
     -1.20966222841100E-15   0.00000000000000E+00   0.00000000000000E+00   0.00000000000000E+00   0.00000000000000E+00
     -2.29524447651000E-17  -2.26499263103089E-16  -2.49451707868189E-16  -1.92010292672560E-15
      4.23176152601792E-01
      3.38540922081434E-01   3.38540922081433E-01   0.00000000000000E+00   0.00000000000000E+00   3.25588410136233E-16
      4.48589765305182E-19   3.26036999901538E-16   3.21059287759252E-15   0.00000000000000E+00   0.00000000000000E+00
      0.00000000000000E+00   0.00000000000000E+00  -1.03627760843127E-18  -3.55956042127062E-17  -3.66318818211375E-17
     -1.28974763166769E-15   0.00000000000000E+00   0.00000000000000E+00   0.00000000000000E+00   0.00000000000000E+00
     -2.29524691859497E-17  -2.66452648894451E-16  -2.89405118080401E-16  -1.92084524592483E-15
      5.23176152601792E-01
      4.18540922081434E-01   4.18540922081434E-01   0.00000000000000E+00   0.00000000000000E+00   3.67944048649058E-16
      4.15043215153267E-19   3.68359091864212E-16   3.28908055729239E-15   0.00000000000000E+00   0.00000000000000E+00
      0.00000000000000E+00   0.00000000000000E+00  -1.03628666788693E-18  -4.11915572526823E-17  -4.22278439205693E-17
     -1.36749314136334E-15   0.00000000000000E+00   0.00000000000000E+00   0.00000000000000E+00   0.00000000000000E+00
     -2.29524932560680E-17  -3.03178754687575E-16  -3.26131247943642E-16  -1.92158741592904E-15
      6.23176152601792E-01
      4.98540922081434E-01   4.98540922081434E-01   0.00000000000000E+00   0.00000000000000E+00   4.07738380997377E-16
      2.80380771353304E-19   4.08018761768730E-16   3.36529640568648E-15   0.00000000000000E+00   0.00000000000000E+00
      0.00000000000000E+00   0.00000000000000E+00  -1.03629504244998E-18  -4.65347463108098E-17  -4.75710413532598E-17
     -1.44296705685115E-15   0.00000000000000E+00   0.00000000000000E+00   0.00000000000000E+00   0.00000000000000E+00
     -2.29525173973355E-17  -3.37495203018135E-16  -3.60447720415470E-16  -1.92232934883534E-15
      7.23176152601792E-01
      5.78540922081434E-01   5.78540922081434E-01   0.00000000000000E+00   0.00000000000000E+00   4.45574122730604E-16
      1.29219283460490E-18   4.46866315565208E-16   3.43920032161600E-15   0.00000000000000E+00   0.00000000000000E+00
      0.00000000000000E+00   0.00000000000000E+00  -1.03630289710342E-18  -5.17543252223836E-17  -5.27906281194870E-17
     -1.51612935983286E-15   0.00000000000000E+00   0.00000000000000E+00   0.00000000000000E+00   0.00000000000000E+00
     -2.29525415662708E-17  -3.71123145879451E-16  -3.94075687445722E-16  -1.92307096178314E-15
      8.23176152601792E-01
      6.58540922081434E-01   6.58540922081434E-01   0.00000000000000E+00   0.00000000000000E+00   4.81805152219345E-16
      4.83842445534938E-19   4.82288994664880E-16   3.51064389130557E-15   0.00000000000000E+00   0.00000000000000E+00
      0.00000000000000E+00   0.00000000000000E+00  -1.03631027090467E-18  -5.69806637437937E-17  -5.80169740146983E-17
     -1.58683170994612E-15   0.00000000000000E+00   0.00000000000000E+00   0.00000000000000E+00   0.00000000000000E+00
     -2.29525657545423E-17  -4.01319454895639E-16  -4.24272020650181E-16  -1.92381218135945E-15
      9.23176152601792E-01
      7.38540922081434E-01   7.38540922081433E-01   0.00000000000000E+00   0.00000000000000E+00   5.16730982134690E-16
      3.37759838658429E-19   5.17068741973348E-16   3.57938207372629E-15   0.00000000000000E+00   0.00000000000000E+00
      0.00000000000000E+00   0.00000000000000E+00  -1.03631708312894E-18  -6.24031203026171E-17  -6.34394373857460E-17
     -1.65482913546174E-15   0.00000000000000E+00   0.00000000000000E+00   0.00000000000000E+00   0.00000000000000E+00
     -2.29525899562196E-17  -4.30676714631383E-16  -4.53629304587602E-16  -1.92455293826455E-15
      1.00000000000000E+00
      8.00000000000000E-01   8.00000000000000E-01   0.00000000000000E+00   0.00000000000000E+00   5.42918530340072E-16
      2.19906965733448E-19   5.43138437305805E-16   3.63017869483369E-15   0.00000000000000E+00   0.00000000000000E+00
      0.00000000000000E+00   0.00000000000000E+00  -1.03632183337677E-18  -6.68502184023142E-17  -6.78865402356910E-17
     -1.70505704288112E-15   0.00000000000000E+00   0.00000000000000E+00   0.00000000000000E+00   0.00000000000000E+00
     -2.29526085544940E-17  -4.52299288515620E-16  -4.75251897070114E-16  -1.92512165195258E-15
}
