DF-ISE text

Info {
  version   = 1.0
  type      = xyplot
  datasets  = [
    "time"
    "Ntop OuterVoltage" "Ntop InnerVoltage" "Ntop QuasiFermiPotential" "Ntop DisplacementCurrent" "Ntop eCurrent"
    "Ntop hCurrent" "Ntop TotalCurrent" "Ntop Charge" "Ptop OuterVoltage" "Ptop InnerVoltage"
    "Ptop QuasiFermiPotential" "Ptop DisplacementCurrent" "Ptop eCurrent" "Ptop hCurrent" "Ptop TotalCurrent"
    "Ptop Charge" "Pbot OuterVoltage" "Pbot InnerVoltage" "Pbot QuasiFermiPotential" "Pbot DisplacementCurrent"
    "Pbot eCurrent" "Pbot hCurrent" "Pbot TotalCurrent" "Pbot Charge" ]
  functions = [
    Time
    OuterVoltage InnerVoltage QuasiFermiPotential DisplacementCurrent eCurrent
    hCurrent TotalCurrent Charge OuterVoltage InnerVoltage
    QuasiFermiPotential DisplacementCurrent eCurrent hCurrent TotalCurrent
    Charge OuterVoltage InnerVoltage QuasiFermiPotential DisplacementCurrent
    eCurrent hCurrent TotalCurrent Charge ]
}

Data {
      0.00000000000000E+00
      0.00000000000000E+00   0.00000000000000E+00   0.00000000000000E+00   0.00000000000000E+00  -1.74170685518646E-25
     -4.60275466587493E-18  -4.60275484004561E-18   2.81992101070287E-15   0.00000000000000E+00   0.00000000000000E+00
      0.00000000000000E+00   0.00000000000000E+00   1.74174908341820E-25   2.45964675440459E-19   2.45964849615368E-19
     -9.02217829671118E-16   0.00000000000000E+00   0.00000000000000E+00   0.00000000000000E+00   0.00000000000000E+00
     -4.23928785688686E-30   4.35678999043448E-18   4.35678999043024E-18  -1.91770318103175E-15
      0.00000000000000E+00
      0.00000000000000E+00   0.00000000000000E+00   0.00000000000000E+00   0.00000000000000E+00  -1.74001770005120E-26
      2.05972914019629E-18   2.05972912279611E-18   2.81992101080625E-15   0.00000000000000E+00   0.00000000000000E+00
      0.00000000000000E+00   0.00000000000000E+00   1.73997341628257E-26   5.72242120355354E-21   5.72243860328770E-21
     -9.02217829671127E-16   0.00000000000000E+00   0.00000000000000E+00   0.00000000000000E+00   0.00000000000000E+00
      9.41871592465154E-31  -2.06545156140034E-18  -2.06545156139940E-18  -1.91770318113512E-15
      1.00000000000000E-02
      8.00000000000000E-03   7.99999999999997E-03   0.00000000000000E+00   0.00000000000000E+00   2.75281002203290E-17
      2.53422163161171E-19   2.77815223834901E-17   2.82585252252602E-15   0.00000000000000E+00   0.00000000000000E+00
      0.00000000000000E+00   0.00000000000000E+00  -2.79521652387686E-19  -1.92375097469872E-18  -2.20327262708641E-18
     -9.08075032931729E-16   0.00000000000000E+00   0.00000000000000E+00   0.00000000000000E+00   0.00000000000000E+00
     -6.88169980725296E-18  -1.86965499491508E-17  -2.55782497564037E-17  -1.91777748959430E-15
      2.37355555555556E-02
      1.89884444444444E-02   1.89884444444444E-02   0.00000000000000E+00   0.00000000000000E+00   5.76869976829914E-17
      4.81808984709041E-19   5.81688066677005E-17   2.83394123691881E-15   0.00000000000000E+00   0.00000000000000E+00
      0.00000000000000E+00   0.00000000000000E+00  -5.45547102263033E-19  -4.03860373308807E-18  -4.58415083535110E-18
     -9.16061694228534E-16   0.00000000000000E+00   0.00000000000000E+00   0.00000000000000E+00   0.00000000000000E+00
     -1.33730849389586E-17  -4.02115708933907E-17  -5.35846558323493E-17  -1.91787954269027E-15
      4.28523965432099E-02
      3.42819172345679E-02   3.42819172345679E-02   0.00000000000000E+00   0.00000000000000E+00   8.93323906097340E-17
      9.83097208224682E-19   9.03154878179587E-17   2.84508985360836E-15   0.00000000000000E+00   0.00000000000000E+00
      0.00000000000000E+00   0.00000000000000E+00  -7.68493712199878E-19  -6.46631839045964E-18  -7.23481210265952E-18
     -9.27068297976076E-16   0.00000000000000E+00   0.00000000000000E+00   0.00000000000000E+00   0.00000000000000E+00
     -1.86432158891479E-17  -6.44374598261511E-17  -8.30806757152990E-17  -1.91802155563229E-15
      6.94587910111385E-02
      5.55670328089108E-02   5.55670328089109E-02   0.00000000000000E+00   0.00000000000000E+00   1.21017694444803E-16
     -9.41599017461987E-19   1.20076095427341E-16   2.86040425948804E-15   0.00000000000000E+00   0.00000000000000E+00
      0.00000000000000E+00   0.00000000000000E+00  -9.21731490274913E-19  -8.84311483464797E-18  -9.76484632492288E-18
     -9.42185087404215E-16   0.00000000000000E+00   0.00000000000000E+00   0.00000000000000E+00   0.00000000000000E+00
     -2.18522745267619E-17  -8.84589745756563E-17  -1.10311249102418E-16  -1.91821917208382E-15
      1.06488979578391E-01
      8.51911836627130E-02   8.51911836627130E-02   0.00000000000000E+00   0.00000000000000E+00   1.52799925051971E-16
     -3.71250066918306E-18   1.49087424382788E-16   2.88135004677027E-15   0.00000000000000E+00   0.00000000000000E+00
      0.00000000000000E+00   0.00000000000000E+00  -1.00158721438811E-18  -8.09603935262635E-18  -9.09762656701446E-18
     -9.62855883165055E-16   0.00000000000000E+00   0.00000000000000E+00   0.00000000000000E+00   0.00000000000000E+00
     -2.28943282577641E-17  -1.17095469558010E-16  -1.39989797815774E-16  -1.91849416360522E-15
      1.58026773133214E-01
      1.26421418506571E-01   1.26421418506572E-01   0.00000000000000E+00   0.00000000000000E+00   1.87405146034158E-16
      1.68030810683012E-19   1.87573176844841E-16   2.90984227839733E-15   0.00000000000000E+00   0.00000000000000E+00
      0.00000000000000E+00   0.00000000000000E+00  -1.02984969160212E-18  -1.55892291094068E-17  -1.66190788010090E-17
     -9.90965442053090E-16   0.00000000000000E+00   0.00000000000000E+00   0.00000000000000E+00   0.00000000000000E+00
     -2.29523293908498E-17  -1.48001768652983E-16  -1.70954098043832E-16  -1.91887683634424E-15
      2.28816795791517E-01
      1.83053436633213E-01   1.83053436633213E-01   0.00000000000000E+00   0.00000000000000E+00   2.27833076032422E-16
     -2.85828010217235E-19   2.27547248022205E-16   2.94784595993119E-15   0.00000000000000E+00   0.00000000000000E+00
      0.00000000000000E+00   0.00000000000000E+00  -1.03570126386303E-18  -1.97563457244449E-17  -2.07920469883079E-17
     -1.02844355057436E-15   0.00000000000000E+00   0.00000000000000E+00   0.00000000000000E+00   0.00000000000000E+00
     -2.29524575025089E-17  -1.83802743531388E-16  -2.06755201033897E-16  -1.91940240935684E-15
      3.26050824691732E-01
      2.60840659753386E-01   2.60840659753386E-01   0.00000000000000E+00   0.00000000000000E+00   2.76516344385042E-16
      2.85585443471483E-19   2.76801929828514E-16   2.99815685909125E-15   0.00000000000000E+00   0.00000000000000E+00
      0.00000000000000E+00   0.00000000000000E+00  -1.03628415594760E-18  -2.50660558970302E-17  -2.61023400529778E-17
     -1.07803259139918E-15   0.00000000000000E+00   0.00000000000000E+00   0.00000000000000E+00   0.00000000000000E+00
     -2.29524454093527E-17  -2.27747144366183E-16  -2.50699589775535E-16  -1.92012426769207E-15
      4.26050824691732E-01
      3.40840659753386E-01   3.40840659753386E-01   0.00000000000000E+00   0.00000000000000E+00   3.21436421467545E-16
      1.30532072718775E-19   3.21566953540264E-16   3.04789064872442E-15   0.00000000000000E+00   0.00000000000000E+00
      0.00000000000000E+00   0.00000000000000E+00  -1.03631018441626E-18  -3.01035716203101E-17  -3.11398818047264E-17
     -1.12702406441461E-15   0.00000000000000E+00   0.00000000000000E+00   0.00000000000000E+00   0.00000000000000E+00
     -2.29524698752281E-17  -2.67474601860309E-16  -2.90427071735537E-16  -1.92086658430982E-15
      5.26050824691732E-01
      4.20840659753386E-01   4.20840659753385E-01   0.00000000000000E+00   0.00000000000000E+00   3.62894004766126E-16
      1.99535598871077E-19   3.63093540364997E-16   3.09580411161853E-15   0.00000000000000E+00   0.00000000000000E+00
      0.00000000000000E+00   0.00000000000000E+00  -1.03631946786400E-18  -3.48502146622656E-17  -3.58865341301296E-17
     -1.17419536169791E-15   0.00000000000000E+00   0.00000000000000E+00   0.00000000000000E+00   0.00000000000000E+00
     -2.29524939495820E-17  -3.04254512285286E-16  -3.27207006234868E-16  -1.92160874992063E-15
      6.26050824691732E-01
      5.00840659753386E-01   5.00840659753386E-01   0.00000000000000E+00   0.00000000000000E+00   4.01864598627944E-16
     -2.98057667860007E-19   4.01566540960084E-16   3.14203647862459E-15   0.00000000000000E+00   0.00000000000000E+00
      0.00000000000000E+00   0.00000000000000E+00  -1.03632818495329E-18  -3.93940060099509E-17  -4.04303341949042E-17
     -1.21968580123546E-15   0.00000000000000E+00   0.00000000000000E+00   0.00000000000000E+00   0.00000000000000E+00
     -2.29525180919355E-17  -3.38183688673244E-16  -3.61136206765180E-16  -1.92235067738913E-15
      7.26050824691732E-01
      5.80840659753386E-01   5.80840659753386E-01   0.00000000000000E+00   0.00000000000000E+00   4.38888582388470E-16
      1.30858278665219E-18   4.40197165175122E-16   3.18665857733797E-15   0.00000000000000E+00   0.00000000000000E+00
      0.00000000000000E+00   0.00000000000000E+00  -1.03633645280502E-18  -4.38587761271988E-17  -4.48951125800038E-17
     -1.26356629140000E-15   0.00000000000000E+00   0.00000000000000E+00   0.00000000000000E+00   0.00000000000000E+00
     -2.29525422617140E-17  -3.72349510333405E-16  -3.95302052595119E-16  -1.92309228593798E-15
      8.26050824691732E-01
      6.60840659753386E-01   6.60840659753386E-01   0.00000000000000E+00   0.00000000000000E+00   4.74257702976096E-16
     -9.35656769477633E-19   4.73322046206619E-16   3.22967952781359E-15   0.00000000000000E+00   0.00000000000000E+00
      0.00000000000000E+00   0.00000000000000E+00  -1.03634432685232E-18  -4.82288089962787E-17  -4.92651533231310E-17
     -1.30584602108944E-15   0.00000000000000E+00   0.00000000000000E+00   0.00000000000000E+00   0.00000000000000E+00
     -2.29525664508917E-17  -4.01104326432596E-16  -4.24056892883488E-16  -1.92383350672416E-15
      9.26050824691732E-01
      7.40840659753386E-01   7.40840659753386E-01   0.00000000000000E+00   0.00000000000000E+00   5.08174916343215E-16
     -9.44601820542720E-20   5.08080456161161E-16   3.27105863513819E-15   0.00000000000000E+00   0.00000000000000E+00
      0.00000000000000E+00   0.00000000000000E+00  -1.03635175383046E-18  -5.26617990652491E-17  -5.36981508190795E-17
     -1.34648435405581E-15   0.00000000000000E+00   0.00000000000000E+00   0.00000000000000E+00   0.00000000000000E+00
     -2.29525906539147E-17  -4.31429714688166E-16  -4.54382305342081E-16  -1.92457428108238E-15
      1.00000000000000E+00
      8.00000000000000E-01   8.00000000000000E-01   0.00000000000000E+00   0.00000000000000E+00   5.32467834471459E-16
      9.29990212413330E-20   5.32560833492700E-16   3.30056711873186E-15   0.00000000000000E+00   0.00000000000000E+00
      0.00000000000000E+00   0.00000000000000E+00  -1.03635691956750E-18  -5.60574258184722E-17  -5.70937827380396E-17
     -1.37544536085788E-15   0.00000000000000E+00   0.00000000000000E+00   0.00000000000000E+00   0.00000000000000E+00
     -2.29526085579590E-17  -4.52514442196702E-16  -4.75467050754661E-16  -1.92512175787398E-15
}
