DF-ISE text

Info {
  version   = 1.0
  type      = xyplot
  datasets  = [
    "time"
    "Ntop OuterVoltage" "Ntop InnerVoltage" "Ntop QuasiFermiPotential" "Ntop DisplacementCurrent" "Ntop eCurrent"
    "Ntop hCurrent" "Ntop TotalCurrent" "Ntop Charge" "Ptop OuterVoltage" "Ptop InnerVoltage"
    "Ptop QuasiFermiPotential" "Ptop DisplacementCurrent" "Ptop eCurrent" "Ptop hCurrent" "Ptop TotalCurrent"
    "Ptop Charge" "Pbot OuterVoltage" "Pbot InnerVoltage" "Pbot QuasiFermiPotential" "Pbot DisplacementCurrent"
    "Pbot eCurrent" "Pbot hCurrent" "Pbot TotalCurrent" "Pbot Charge" ]
  functions = [
    Time
    OuterVoltage InnerVoltage QuasiFermiPotential DisplacementCurrent eCurrent
    hCurrent TotalCurrent Charge OuterVoltage InnerVoltage
    QuasiFermiPotential DisplacementCurrent eCurrent hCurrent TotalCurrent
    Charge OuterVoltage InnerVoltage QuasiFermiPotential DisplacementCurrent
    eCurrent hCurrent TotalCurrent Charge ]
}

Data {
      0.00000000000000E+00
      0.00000000000000E+00   0.00000000000000E+00   0.00000000000000E+00   0.00000000000000E+00  -3.42008532812316E-25
     -4.56017541314222E-18  -4.56017575515075E-18   2.69888605307833E-15   0.00000000000000E+00   0.00000000000000E+00
      0.00000000000000E+00   0.00000000000000E+00   3.42010399866755E-25   1.92628819425813E-19   1.92629161436213E-19
     -7.81182872051942E-16   0.00000000000000E+00   0.00000000000000E+00   0.00000000000000E+00   0.00000000000000E+00
     -1.88364579543204E-30   4.36754659371642E-18   4.36754659371454E-18  -1.91770318102638E-15
      0.00000000000000E+00
      0.00000000000000E+00   0.00000000000000E+00   0.00000000000000E+00   0.00000000000000E+00  -2.87897305195546E-26
     -6.44676230734257E-20  -6.44676518631562E-20   2.69888605318170E-15   0.00000000000000E+00   0.00000000000000E+00
      0.00000000000000E+00   0.00000000000000E+00   2.87951728476103E-26  -7.55991925891496E-23  -7.55703974163020E-23
     -7.81182872051945E-16   0.00000000000000E+00   0.00000000000000E+00   0.00000000000000E+00   0.00000000000000E+00
     -4.94699256976083E-30   6.45432222655195E-20   6.45432222605725E-20  -1.91770318112976E-15
      1.00000000000000E-02
      8.00000000000000E-03   7.99999999999997E-03   0.00000000000000E+00   0.00000000000000E+00   2.76690042719356E-17
      4.78551187426670E-19   2.81475554593622E-17   2.70585087021429E-15   0.00000000000000E+00   0.00000000000000E+00
      0.00000000000000E+00   0.00000000000000E+00  -2.79521301791239E-19  -2.06386151006977E-18  -2.34338281186101E-18
     -7.88073380626026E-16   0.00000000000000E+00   0.00000000000000E+00   0.00000000000000E+00   0.00000000000000E+00
     -6.88169980497787E-18  -1.89224728425234E-17  -2.58041726475012E-17  -1.91777748958827E-15
      2.37355555555556E-02
      1.89884444444444E-02   1.89884444444444E-02   0.00000000000000E+00   0.00000000000000E+00   5.79960978537324E-17
      1.06150578899753E-18   5.90576036427300E-17   2.71535020398664E-15   0.00000000000000E+00   0.00000000000000E+00
      0.00000000000000E+00   0.00000000000000E+00  -5.45546508742556E-19  -4.43257413705907E-18  -4.97812064580162E-18
     -7.97470661303424E-16   0.00000000000000E+00   0.00000000000000E+00   0.00000000000000E+00   0.00000000000000E+00
     -1.33730849358382E-17  -4.07063980610902E-17  -5.40794829969283E-17  -1.91787954268322E-15
      4.28523965432099E-02
      3.42819172345679E-02   3.42819172345679E-02   0.00000000000000E+00   0.00000000000000E+00   8.98387589079030E-17
     -1.13934596305616E-18   8.86994129448468E-17   2.72844595204665E-15   0.00000000000000E+00   0.00000000000000E+00
      0.00000000000000E+00   0.00000000000000E+00  -7.68493056572224E-19  -7.06628458030954E-18  -7.83477763688176E-18
     -8.10424396423065E-16   0.00000000000000E+00   0.00000000000000E+00   0.00000000000000E+00   0.00000000000000E+00
     -1.86432158865875E-17  -6.22214194213775E-17  -8.08646353079650E-17  -1.91802155562358E-15
      6.94587910111385E-02
      5.55670328089108E-02   5.55670328089109E-02   0.00000000000000E+00   0.00000000000000E+00   1.21750917983909E-16
     -1.95305115677707E-19   1.21555612868232E-16   2.74644056295552E-15   0.00000000000000E+00   0.00000000000000E+00
      0.00000000000000E+00   0.00000000000000E+00  -9.21731587246973E-19  -9.72020475481075E-18  -1.06419363420577E-17
     -8.28221390883248E-16   0.00000000000000E+00   0.00000000000000E+00   0.00000000000000E+00   0.00000000000000E+00
     -2.18522745255471E-17  -8.90614020006270E-17  -1.10913676526174E-16  -1.91821917207228E-15
      1.06488979578391E-01
      8.51911836627130E-02   8.51911836627130E-02   0.00000000000000E+00   0.00000000000000E+00   1.53795466708307E-16
     -3.22177952040619E-18   1.50573687187901E-16   2.77106263033233E-15   0.00000000000000E+00   0.00000000000000E+00
      0.00000000000000E+00   0.00000000000000E+00  -1.00159269177509E-18  -1.01739747073511E-17  -1.11755673991262E-17
     -8.52568466743974E-16   0.00000000000000E+00   0.00000000000000E+00   0.00000000000000E+00   0.00000000000000E+00
     -2.28943282576018E-17  -1.16503791531173E-16  -1.39398119788775E-16  -1.91849416358836E-15
      1.58026773133214E-01
      1.26421418506571E-01   1.26421418506572E-01   0.00000000000000E+00   0.00000000000000E+00   1.88713436878837E-16
     -8.16632420353660E-20   1.88631773636802E-16   2.80457576793543E-15   0.00000000000000E+00   0.00000000000000E+00
      0.00000000000000E+00   0.00000000000000E+00  -1.02984843046959E-18  -1.69813070822586E-17  -1.80111555127282E-17
     -8.85698931619164E-16   0.00000000000000E+00   0.00000000000000E+00   0.00000000000000E+00   0.00000000000000E+00
     -2.29523293908485E-17  -1.47668288733225E-16  -1.70620618124074E-16  -1.91887683631626E-15
      2.28816795791517E-01
      1.83053436633213E-01   1.83053436633213E-01   0.00000000000000E+00   0.00000000000000E+00   2.29524124277263E-16
      6.37557184728740E-19   2.30161681461991E-16   2.84931439312987E-15   0.00000000000000E+00   0.00000000000000E+00
      0.00000000000000E+00   0.00000000000000E+00  -1.03569999694188E-18  -2.15532227418313E-17  -2.25889227387732E-17
     -9.29911983827433E-16   0.00000000000000E+00   0.00000000000000E+00   0.00000000000000E+00   0.00000000000000E+00
     -2.29524575025075E-17  -1.84620301220711E-16  -2.07572758723218E-16  -1.91940240930244E-15
      3.26050824691732E-01
      2.60840659753386E-01   2.60840659753386E-01   0.00000000000000E+00   0.00000000000000E+00   2.78669732111748E-16
     -1.78505576782778E-19   2.78491226534965E-16   2.90861291120341E-15   0.00000000000000E+00   0.00000000000000E+00
      0.00000000000000E+00   0.00000000000000E+00  -1.03628296405819E-18  -2.72932379980825E-17  -2.83295209621407E-17
     -9.88488643640993E-16   0.00000000000000E+00   0.00000000000000E+00   0.00000000000000E+00   0.00000000000000E+00
     -2.29524454093470E-17  -2.27209260163478E-16  -2.50161705572825E-16  -1.92012426756242E-15
      4.26050824691732E-01
      3.40840659753386E-01   3.40840659753386E-01   0.00000000000000E+00   0.00000000000000E+00   3.24011535827935E-16
     -3.30622142549870E-20   3.23978473613680E-16   2.96731784942457E-15   0.00000000000000E+00   0.00000000000000E+00
      0.00000000000000E+00   0.00000000000000E+00  -1.03630902631201E-18  -3.27625163427686E-17  -3.37988253690806E-17
     -1.04645126541898E-15   0.00000000000000E+00   0.00000000000000E+00   0.00000000000000E+00   0.00000000000000E+00
     -2.29524698752180E-17  -2.67227178369381E-16  -2.90179648244599E-16  -1.92086658400559E-15
      5.26050824691732E-01
      4.20840659753386E-01   4.20840659753385E-01   0.00000000000000E+00   0.00000000000000E+00   3.65862921131467E-16
      2.23268895483609E-19   3.66086190026951E-16   3.02396023273967E-15   0.00000000000000E+00   0.00000000000000E+00
      0.00000000000000E+00   0.00000000000000E+00  -1.03631815802304E-18  -3.79289310693472E-17  -3.89652492273702E-17
     -1.10235148351346E-15   0.00000000000000E+00   0.00000000000000E+00   0.00000000000000E+00   0.00000000000000E+00
     -2.29524939495592E-17  -3.04168446850022E-16  -3.27120940799581E-16  -1.92160874922620E-15
      6.26050824691732E-01
      5.00840659753386E-01   5.00840659753386E-01   0.00000000000000E+00   0.00000000000000E+00   4.05211664763293E-16
     -9.62364963993674E-21   4.05202041113653E-16   3.07869552570505E-15   0.00000000000000E+00   0.00000000000000E+00
      0.00000000000000E+00   0.00000000000000E+00  -1.03632667400271E-18  -4.28681514201446E-17  -4.39044780941473E-17
     -1.15634484987638E-15   0.00000000000000E+00   0.00000000000000E+00   0.00000000000000E+00   0.00000000000000E+00
     -2.29525180918848E-17  -3.38345044927621E-16  -3.61297563019506E-16  -1.92235067582867E-15
      7.26050824691732E-01
      5.80840659753386E-01   5.80840659753386E-01   0.00000000000000E+00   0.00000000000000E+00   4.42600419640940E-16
      7.97915433542517E-19   4.43398335074483E-16   3.13159245267814E-15   0.00000000000000E+00   0.00000000000000E+00
      0.00000000000000E+00   0.00000000000000E+00  -1.03633471818167E-18  -4.76838937966918E-17  -4.87202285148735E-17
     -1.20850017023353E-15   0.00000000000000E+00   0.00000000000000E+00   0.00000000000000E+00   0.00000000000000E+00
     -2.29525422615999E-17  -3.71725564298009E-16  -3.94678106559609E-16  -1.92309228244462E-15
      8.26050824691732E-01
      6.60840659753386E-01   6.60840659753386E-01   0.00000000000000E+00   0.00000000000000E+00   4.78324151747349E-16
     -1.84086027151635E-19   4.78140065720198E-16   3.18263840216996E-15   0.00000000000000E+00   0.00000000000000E+00
      0.00000000000000E+00   0.00000000000000E+00  -1.03634232486254E-18  -5.24336717018693E-17  -5.34700140267319E-17
     -1.25880490332715E-15   0.00000000000000E+00   0.00000000000000E+00   0.00000000000000E+00   0.00000000000000E+00
     -2.29525664506344E-17  -4.01717485242832E-16  -4.24670051693466E-16  -1.92383349884282E-15
      9.26050824691732E-01
      7.40840659753386E-01   7.40840659753386E-01   0.00000000000000E+00   0.00000000000000E+00   5.12609139977808E-16
     -1.86428421581072E-19   5.12422711556227E-16   3.23175293844843E-15   0.00000000000000E+00   0.00000000000000E+00
      0.00000000000000E+00   0.00000000000000E+00  -1.03634944376989E-18  -5.72406984405959E-17  -5.82770478843658E-17
     -1.30717867544230E-15   0.00000000000000E+00   0.00000000000000E+00   0.00000000000000E+00   0.00000000000000E+00
     -2.29525906533235E-17  -4.31193073018538E-16  -4.54145663671861E-16  -1.92457426300614E-15
      1.00000000000000E+00
      8.00000000000000E-01   8.00000000000000E-01   0.00000000000000E+00   0.00000000000000E+00   5.37208322927841E-16
      7.38689554314488E-19   5.37947012482155E-16   3.26676897630241E-15   0.00000000000000E+00   0.00000000000000E+00
      0.00000000000000E+00   0.00000000000000E+00  -1.03635433372298E-18  -6.09165122186176E-17  -6.19528665523406E-17
     -1.34164725220061E-15   0.00000000000000E+00   0.00000000000000E+00   0.00000000000000E+00   0.00000000000000E+00
     -2.29526085568543E-17  -4.53041537372960E-16  -4.75994145929815E-16  -1.92512172410179E-15
}
