DF-ISE text

Info {
  version   = 1.0
  type      = xyplot
  datasets  = [
    "time"
    "Ntop OuterVoltage" "Ntop InnerVoltage" "Ntop QuasiFermiPotential" "Ntop DisplacementCurrent" "Ntop eCurrent"
    "Ntop hCurrent" "Ntop TotalCurrent" "Ntop Charge" "Ptop OuterVoltage" "Ptop InnerVoltage"
    "Ptop QuasiFermiPotential" "Ptop DisplacementCurrent" "Ptop eCurrent" "Ptop hCurrent" "Ptop TotalCurrent"
    "Ptop Charge" "Pbot OuterVoltage" "Pbot InnerVoltage" "Pbot QuasiFermiPotential" "Pbot DisplacementCurrent"
    "Pbot eCurrent" "Pbot hCurrent" "Pbot TotalCurrent" "Pbot Charge" ]
  functions = [
    Time
    OuterVoltage InnerVoltage QuasiFermiPotential DisplacementCurrent eCurrent
    hCurrent TotalCurrent Charge OuterVoltage InnerVoltage
    QuasiFermiPotential DisplacementCurrent eCurrent hCurrent TotalCurrent
    Charge OuterVoltage InnerVoltage QuasiFermiPotential DisplacementCurrent
    eCurrent hCurrent TotalCurrent Charge ]
}

Data {
      0.00000000000000E+00
      0.00000000000000E+00   0.00000000000000E+00   0.00000000000000E+00   0.00000000000000E+00   9.81111204991756E-26
     -4.28183117378849E-18  -4.28183107567737E-18   3.00459644060745E-15   0.00000000000000E+00   0.00000000000000E+00
      0.00000000000000E+00   0.00000000000000E+00  -9.81189030332381E-26  -3.19288009443446E-20  -3.19288990632476E-20
     -1.08689325958196E-15   0.00000000000000E+00   0.00000000000000E+00   0.00000000000000E+00   0.00000000000000E+00
      7.77279972244543E-30   4.31375997473284E-18   4.31375997474061E-18  -1.91770318102548E-15
      0.00000000000000E+00
      0.00000000000000E+00   0.00000000000000E+00   0.00000000000000E+00   0.00000000000000E+00   8.24572824639865E-27
     -6.88256947640936E-20  -6.88256865183654E-20   3.00459644071083E-15   0.00000000000000E+00   0.00000000000000E+00
      0.00000000000000E+00   0.00000000000000E+00  -8.24474558418920E-27  -6.47413078387735E-21  -6.47413902862293E-21
     -1.08689325958197E-15   0.00000000000000E+00   0.00000000000000E+00   0.00000000000000E+00   0.00000000000000E+00
     -4.71224347299578E-31   7.52998255474594E-20   7.52998255469882E-20  -1.91770318112886E-15
      1.00000000000000E-02
      8.00000000000000E-03   7.99999999999997E-03   0.00000000000000E+00   0.00000000000000E+00   2.77345556107273E-17
      2.26904429673677E-18   3.00035999074641E-17   3.01262399425748E-15   0.00000000000000E+00   0.00000000000000E+00
      0.00000000000000E+00   0.00000000000000E+00  -2.79511847437366E-19  -2.16643957414439E-18  -2.44595142158176E-18
     -1.09484650467028E-15   0.00000000000000E+00   0.00000000000000E+00   0.00000000000000E+00   0.00000000000000E+00
     -6.88169980158676E-18  -2.06759486842956E-17  -2.75576484858823E-17  -1.91777748958720E-15
      2.37355555555556E-02
      1.89884444444444E-02   1.89884444444444E-02   0.00000000000000E+00   0.00000000000000E+00   5.81393446977769E-17
      2.46034713291070E-18   6.05996918306877E-17   3.02359082559078E-15   0.00000000000000E+00   0.00000000000000E+00
      0.00000000000000E+00   0.00000000000000E+00  -5.45529427067643E-19  -4.59770449858566E-18  -5.14323392565331E-18
     -1.10571128290887E-15   0.00000000000000E+00   0.00000000000000E+00   0.00000000000000E+00   0.00000000000000E+00
     -1.33730849311962E-17  -4.20833729738382E-17  -5.54564579050343E-17  -1.91787954268191E-15
      4.28523965432099E-02
      3.42819172345679E-02   3.42819172345679E-02   0.00000000000000E+00   0.00000000000000E+00   9.00712381462539E-17
     -1.12660983025390E-18   8.89446283160000E-17   3.03874402267169E-15   0.00000000000000E+00   0.00000000000000E+00
      0.00000000000000E+00   0.00000000000000E+00  -7.68468357036780E-19  -7.36531127382168E-18  -8.13377963085846E-18
     -1.12072246704980E-15   0.00000000000000E+00   0.00000000000000E+00   0.00000000000000E+00   0.00000000000000E+00
     -1.86432158827476E-17  -6.21676328023940E-17  -8.08108486851415E-17  -1.91802155562189E-15
      6.94587910111385E-02
      5.55670328089108E-02   5.55670328089109E-02   0.00000000000000E+00   0.00000000000000E+00   1.22080169040038E-16
     -3.77674956724135E-19   1.21702494083314E-16   3.05963132514989E-15   0.00000000000000E+00   0.00000000000000E+00
      0.00000000000000E+00   0.00000000000000E+00  -9.21697475494064E-19  -1.01898542076755E-17  -1.11115516831696E-17
     -1.14141215307993E-15   0.00000000000000E+00   0.00000000000000E+00   0.00000000000000E+00   0.00000000000000E+00
     -2.18522745237143E-17  -8.87386678764300E-17  -1.10590942400144E-16  -1.91821917206995E-15
      1.06488979578391E-01
      8.51911836627130E-02   8.51911836627130E-02   0.00000000000000E+00   0.00000000000000E+00   1.54222759525548E-16
     -1.49976371910154E-18   1.52722995806447E-16   3.08833598745055E-15   0.00000000000000E+00   0.00000000000000E+00
      0.00000000000000E+00   0.00000000000000E+00  -1.00153187733817E-18  -1.17424371273184E-17  -1.27439690046566E-17
     -1.16984182386572E-15   0.00000000000000E+00   0.00000000000000E+00   0.00000000000000E+00   0.00000000000000E+00
     -2.28943282573581E-17  -1.17084698544432E-16  -1.39979026801790E-16  -1.91849416358483E-15
      1.58026773133214E-01
      1.26421418506571E-01   1.26421418506572E-01   0.00000000000000E+00   0.00000000000000E+00   1.89235242637478E-16
     -2.93427316474138E-19   1.88941815321004E-16   3.12764067105964E-15   0.00000000000000E+00   0.00000000000000E+00
      0.00000000000000E+00   0.00000000000000E+00  -1.02981658319600E-18  -1.75280673155368E-17  -1.85578838987328E-17
     -1.20876383474946E-15   0.00000000000000E+00   0.00000000000000E+00   0.00000000000000E+00   0.00000000000000E+00
     -2.29523293908481E-17  -1.47431602031423E-16  -1.70383931422271E-16  -1.91887683631018E-15
      2.28816795791517E-01
      1.83053436633213E-01   1.83053436633213E-01   0.00000000000000E+00   0.00000000000000E+00   2.30139050429348E-16
      9.34798806150172E-19   2.31073849235498E-16   3.18054059007773E-15   0.00000000000000E+00   0.00000000000000E+00
      0.00000000000000E+00   0.00000000000000E+00  -1.03566846830282E-18  -2.22072437510544E-17  -2.32429122193572E-17
     -1.26113818078775E-15   0.00000000000000E+00   0.00000000000000E+00   0.00000000000000E+00   0.00000000000000E+00
     -2.29524575025074E-17  -1.84878479513634E-16  -2.07830937016141E-16  -1.91940240928997E-15
      3.26050824691732E-01
      2.60840659753386E-01   2.60840659753386E-01   0.00000000000000E+00   0.00000000000000E+00   2.79404301717582E-16
     -3.89108313306528E-19   2.79015193404275E-16   3.25143306364266E-15   0.00000000000000E+00   0.00000000000000E+00
      0.00000000000000E+00   0.00000000000000E+00  -1.03625208049250E-18  -2.80754068387356E-17  -2.91116589192281E-17
     -1.33130879611206E-15   0.00000000000000E+00   0.00000000000000E+00   0.00000000000000E+00   0.00000000000000E+00
     -2.29524454093447E-17  -2.26951089075702E-16  -2.49903534485047E-16  -1.92012426753060E-15
      4.26050824691732E-01
      3.40840659753386E-01   3.40840659753386E-01   0.00000000000000E+00   0.00000000000000E+00   3.24877291476688E-16
      1.22839826993752E-19   3.25000131303681E-16   3.32251697879851E-15   0.00000000000000E+00   0.00000000000000E+00
      0.00000000000000E+00   0.00000000000000E+00  -1.03627824925977E-18  -3.36336051587295E-17  -3.46698834079893E-17
     -1.40165039487265E-15   0.00000000000000E+00   0.00000000000000E+00   0.00000000000000E+00   0.00000000000000E+00
     -2.29524698752157E-17  -2.67377778020476E-16  -2.90330247895692E-16  -1.92086658392587E-15
      5.26050824691732E-01
      4.20840659753386E-01   4.20840659753385E-01   0.00000000000000E+00   0.00000000000000E+00   3.66856667890744E-16
      1.06453683648983E-18   3.67921204727234E-16   3.39199033153585E-15   0.00000000000000E+00   0.00000000000000E+00
      0.00000000000000E+00   0.00000000000000E+00  -1.03628736246929E-18  -3.89571484598448E-17  -3.99934358223141E-17
     -1.47038158250272E-15   0.00000000000000E+00   0.00000000000000E+00   0.00000000000000E+00   0.00000000000000E+00
     -2.29524939495528E-17  -3.04975274955366E-16  -3.27927768904919E-16  -1.92160874903314E-15
      6.26050824691732E-01
      5.00840659753386E-01   5.00840659753386E-01   0.00000000000000E+00   0.00000000000000E+00   4.06303953648264E-16
      5.16270836074583E-19   4.06820224484339E-16   3.45999675732823E-15   0.00000000000000E+00   0.00000000000000E+00
      0.00000000000000E+00   0.00000000000000E+00  -1.03629584589734E-18  -4.40022716378028E-17  -4.50385674837002E-17
     -1.53764608195720E-15   0.00000000000000E+00   0.00000000000000E+00   0.00000000000000E+00   0.00000000000000E+00
     -2.29525180918698E-17  -3.38829138908769E-16  -3.61781657000639E-16  -1.92235067537103E-15
      7.26050824691732E-01
      5.80840659753386E-01   5.80840659753386E-01   0.00000000000000E+00   0.00000000000000E+00   4.43741102338043E-16
      6.20060055043823E-20   4.43803108343547E-16   3.52658720944031E-15   0.00000000000000E+00   0.00000000000000E+00
      0.00000000000000E+00   0.00000000000000E+00  -1.03630384381090E-18  -4.88632382227915E-17  -4.98995420666024E-17
     -1.60349492807126E-15   0.00000000000000E+00   0.00000000000000E+00   0.00000000000000E+00   0.00000000000000E+00
     -2.29525422615648E-17  -3.70951024015380E-16  -3.93903566276945E-16  -1.92309228136905E-15
      8.26050824691732E-01
      6.60840659753386E-01   6.60840659753386E-01   0.00000000000000E+00   0.00000000000000E+00   4.79481908661214E-16
      2.12883979024548E-19   4.79694792640238E-16   3.59172066875572E-15   0.00000000000000E+00   0.00000000000000E+00
      0.00000000000000E+00   0.00000000000000E+00  -1.03631139526956E-18  -5.36334274188296E-17  -5.46697388140991E-17
     -1.66788717245344E-15   0.00000000000000E+00   0.00000000000000E+00   0.00000000000000E+00   0.00000000000000E+00
     -2.29525664505513E-17  -4.02072487375588E-16  -4.25025053826139E-16  -1.92383349630227E-15
      9.26050824691732E-01
      7.40840659753386E-01   7.40840659753386E-01   0.00000000000000E+00   0.00000000000000E+00   5.13786353254888E-16
     -9.63385451541439E-19   5.12822967803346E-16   3.65527371419283E-15   0.00000000000000E+00   0.00000000000000E+00
      0.00000000000000E+00   0.00000000000000E+00  -1.03631843987389E-18  -5.84693089908496E-17  -5.95056274307235E-17
     -1.73069945728977E-15   0.00000000000000E+00   0.00000000000000E+00   0.00000000000000E+00   0.00000000000000E+00
     -2.29525906531243E-17  -4.30364749719498E-16  -4.53317340372623E-16  -1.92457425690306E-15
      1.00000000000000E+00
      8.00000000000000E-01   8.00000000000000E-01   0.00000000000000E+00   0.00000000000000E+00   5.38424529144977E-16
     -3.48737179720356E-20   5.38389655427005E-16   3.70115966250495E-15   0.00000000000000E+00   0.00000000000000E+00
      0.00000000000000E+00   0.00000000000000E+00  -1.03632325743845E-18  -6.21767259165934E-17  -6.32130491740319E-17
     -1.77603795023190E-15   0.00000000000000E+00   0.00000000000000E+00   0.00000000000000E+00   0.00000000000000E+00
     -2.29526085564673E-17  -4.52223997696507E-16  -4.75176606252974E-16  -1.92512171227305E-15
}
