DF-ISE text

Info {
  version   = 1.0
  type      = xyplot
  datasets  = [
    "time"
    "Ntop OuterVoltage" "Ntop InnerVoltage" "Ntop QuasiFermiPotential" "Ntop DisplacementCurrent" "Ntop eCurrent"
    "Ntop hCurrent" "Ntop TotalCurrent" "Ntop Charge" "Ptop OuterVoltage" "Ptop InnerVoltage"
    "Ptop QuasiFermiPotential" "Ptop DisplacementCurrent" "Ptop eCurrent" "Ptop hCurrent" "Ptop TotalCurrent"
    "Ptop Charge" "Pbot OuterVoltage" "Pbot InnerVoltage" "Pbot QuasiFermiPotential" "Pbot DisplacementCurrent"
    "Pbot eCurrent" "Pbot hCurrent" "Pbot TotalCurrent" "Pbot Charge" ]
  functions = [
    Time
    OuterVoltage InnerVoltage QuasiFermiPotential DisplacementCurrent eCurrent
    hCurrent TotalCurrent Charge OuterVoltage InnerVoltage
    QuasiFermiPotential DisplacementCurrent eCurrent hCurrent TotalCurrent
    Charge OuterVoltage InnerVoltage QuasiFermiPotential DisplacementCurrent
    eCurrent hCurrent TotalCurrent Charge ]
}

Data {
      0.00000000000000E+00
      0.00000000000000E+00   0.00000000000000E+00   0.00000000000000E+00   0.00000000000000E+00   4.46421224252784E-27
     -4.43828786791066E-18  -4.43828786344645E-18   4.88160351570350E-15   0.00000000000000E+00   0.00000000000000E+00
      0.00000000000000E+00   0.00000000000000E+00  -4.46256564367761E-27   1.35288099033638E-19   1.35288094571073E-19
     -2.96390033467307E-15   0.00000000000000E+00   0.00000000000000E+00   0.00000000000000E+00   0.00000000000000E+00
     -1.65025053954608E-30   4.30299976887702E-18   4.30299976887537E-18  -1.91770318103045E-15
      0.00000000000000E+00
      0.00000000000000E+00   0.00000000000000E+00   0.00000000000000E+00   0.00000000000000E+00   1.47597114036863E-26
      1.70007852076294E-18   1.70007853552265E-18   4.88160351580687E-15   0.00000000000000E+00   0.00000000000000E+00
      0.00000000000000E+00   0.00000000000000E+00  -1.47506984439915E-26  -3.83894114003170E-22  -3.83908864701614E-22
     -2.96390033467305E-15   0.00000000000000E+00   0.00000000000000E+00   0.00000000000000E+00   0.00000000000000E+00
     -8.48069668121589E-30  -1.69969462664947E-18  -1.69969462665795E-18  -1.91770318113383E-15
      1.00000000000000E-02
      8.00000000000000E-03   7.99999999999997E-03   0.00000000000000E+00   0.00000000000000E+00   2.77316383753360E-17
      2.06851152732343E-18   2.98001499026594E-17   4.90758503721116E-15   0.00000000000000E+00   0.00000000000000E+00
      0.00000000000000E+00   0.00000000000000E+00  -2.79502285279640E-19  -2.12437880514275E-18  -2.40388109042239E-18
     -2.98980754761845E-15   0.00000000000000E+00   0.00000000000000E+00   0.00000000000000E+00   0.00000000000000E+00
     -6.88169979904857E-18  -2.05145690131885E-17  -2.73962688122371E-17  -1.91777748959271E-15
      2.37355555555556E-02
      1.89884444444444E-02   1.89884444444444E-02   0.00000000000000E+00   0.00000000000000E+00   5.81349167631834E-17
      3.46942015183338E-19   5.84818587783667E-17   4.94317812828132E-15   0.00000000000000E+00   0.00000000000000E+00
      0.00000000000000E+00   0.00000000000000E+00  -5.45530124183709E-19  -4.56682111035510E-18  -5.11235123453881E-18
     -3.02529858559303E-15   0.00000000000000E+00   0.00000000000000E+00   0.00000000000000E+00   0.00000000000000E+00
     -1.33730849276584E-17  -3.99964226161695E-17  -5.33695075438279E-17  -1.91787954268828E-15
      4.28523965432099E-02
      3.42819172345679E-02   3.42819172345679E-02   0.00000000000000E+00   0.00000000000000E+00   9.00688754262939E-17
      7.20957887282259E-19   9.07898333135761E-17   4.99253946457364E-15   0.00000000000000E+00   0.00000000000000E+00
      0.00000000000000E+00   0.00000000000000E+00  -7.68468508360200E-19  -7.29567502046111E-18  -8.06414352882131E-18
     -3.07451790894395E-15   0.00000000000000E+00   0.00000000000000E+00   0.00000000000000E+00   0.00000000000000E+00
     -1.86432158797770E-17  -6.40824739049777E-17  -8.27256897847548E-17  -1.91802155562969E-15
      6.94587910111385E-02
      5.55670328089108E-02   5.55670328089109E-02   0.00000000000000E+00   0.00000000000000E+00   1.22087630699539E-16
     -4.34325613797222E-19   1.21653305085742E-16   5.06090939612153E-15   0.00000000000000E+00   0.00000000000000E+00
      0.00000000000000E+00   0.00000000000000E+00  -9.21690278225735E-19  -1.00545979671260E-17  -1.09762882453517E-17
     -3.14269022404131E-15   0.00000000000000E+00   0.00000000000000E+00   0.00000000000000E+00   0.00000000000000E+00
     -2.18522745222617E-17  -8.88247423181288E-17  -1.10677016840391E-16  -1.91821917208022E-15
      1.06488979578391E-01
      8.51911836627130E-02   8.51911836627130E-02   0.00000000000000E+00   0.00000000000000E+00   1.54254559652456E-16
      1.67333534665351E-19   1.54421893187121E-16   5.15545302057252E-15   0.00000000000000E+00   0.00000000000000E+00
      0.00000000000000E+00   0.00000000000000E+00  -1.00154222986943E-18  -1.36782031166660E-17  -1.46797453465355E-17
     -3.23695885697271E-15   0.00000000000000E+00   0.00000000000000E+00   0.00000000000000E+00   0.00000000000000E+00
     -2.28941089788912E-17  -1.16848038861694E-16  -1.39742147840585E-16  -1.91849416359980E-15
      1.57352000808211E-01
      1.25881600646569E-01   1.25881600646569E-01   0.00000000000000E+00   0.00000000000000E+00   1.88892186606441E-16
      1.93300773989966E-19   1.89085487380431E-16   5.28421206440041E-15   0.00000000000000E+00   0.00000000000000E+00
      0.00000000000000E+00   0.00000000000000E+00  -1.02967319587816E-18  -1.75212606451140E-17  -1.85509338409922E-17
     -3.36534023804761E-15   0.00000000000000E+00   0.00000000000000E+00   0.00000000000000E+00   0.00000000000000E+00
     -2.29523266394037E-17  -1.47582226900035E-16  -1.70534553539438E-16  -1.91887182635279E-15
      2.27215186190770E-01
      1.81772148952616E-01   1.81772148952616E-01   0.00000000000000E+00   0.00000000000000E+00   2.29410826292121E-16
      1.88885045631819E-19   2.29599711337753E-16   5.45910586109753E-15   0.00000000000000E+00   0.00000000000000E+00
      0.00000000000000E+00   0.00000000000000E+00  -1.03563625800359E-18  -2.21961532956011E-17  -2.32317895536046E-17
     -3.53971534238618E-15   0.00000000000000E+00   0.00000000000000E+00   0.00000000000000E+00   0.00000000000000E+00
     -2.29524592018497E-17  -1.83415462582298E-16  -2.06367921784148E-16  -1.91939051871134E-15
      3.23176152601792E-01
      2.58540922081434E-01   2.58540922081434E-01   0.00000000000000E+00   0.00000000000000E+00   2.78223467718408E-16
      7.14411009553045E-19   2.78937878727961E-16   5.69579104140310E-15   0.00000000000000E+00   0.00000000000000E+00
      0.00000000000000E+00   0.00000000000000E+00  -1.03625131253396E-18  -2.80411019748955E-17  -2.90773532874295E-17
     -3.77568811433635E-15   0.00000000000000E+00   0.00000000000000E+00   0.00000000000000E+00   0.00000000000000E+00
     -2.29524447651124E-17  -2.26908080675419E-16  -2.49860525440532E-16  -1.92010292706674E-15
      4.23176152601792E-01
      3.38540922081434E-01   3.38540922081433E-01   0.00000000000000E+00   0.00000000000000E+00   3.23831007848961E-16
     -6.16030073668425E-19   3.23214977775293E-16   5.93808004886948E-15   0.00000000000000E+00   0.00000000000000E+00
      0.00000000000000E+00   0.00000000000000E+00  -1.03627951440669E-18  -3.36664773236428E-17  -3.47027568380495E-17
     -4.01723480215424E-15   0.00000000000000E+00   0.00000000000000E+00   0.00000000000000E+00   0.00000000000000E+00
     -2.29524691859752E-17  -2.65559751751268E-16  -2.88512220937243E-16  -1.92084524671523E-15
      5.23176152601792E-01
      4.18540922081434E-01   4.18540922081434E-01   0.00000000000000E+00   0.00000000000000E+00   3.65880500666908E-16
      4.80115673446090E-19   3.66360616340354E-16   6.17570910058290E-15   0.00000000000000E+00   0.00000000000000E+00
      0.00000000000000E+00   0.00000000000000E+00  -1.03628877006647E-18  -3.89456615395204E-17  -3.99819503095868E-17
     -4.25412168287121E-15   0.00000000000000E+00   0.00000000000000E+00   0.00000000000000E+00   0.00000000000000E+00
     -2.29524932561260E-17  -3.03426172774642E-16  -3.26378666030768E-16  -1.92158741771168E-15
      6.23176152601792E-01
      4.98540922081434E-01   4.98540922081434E-01   0.00000000000000E+00   0.00000000000000E+00   4.05369764960042E-16
     -4.63933825234972E-19   4.04905831134807E-16   6.40869741293924E-15   0.00000000000000E+00   0.00000000000000E+00
      0.00000000000000E+00   0.00000000000000E+00  -1.03629738336788E-18  -4.39704469366786E-17  -4.50067443200464E-17
     -4.48636806014085E-15   0.00000000000000E+00   0.00000000000000E+00   0.00000000000000E+00   0.00000000000000E+00
     -2.29525173974647E-17  -3.36946569417296E-16  -3.59899086814760E-16  -1.92232935279838E-15
      7.23176152601792E-01
      5.78540922081434E-01   5.78540922081434E-01   0.00000000000000E+00   0.00000000000000E+00   4.42867287910199E-16
     -3.77998420272655E-19   4.42489289489927E-16   6.63772718378979E-15   0.00000000000000E+00   0.00000000000000E+00
      0.00000000000000E+00   0.00000000000000E+00  -1.03630552417483E-18  -4.88295604503170E-17  -4.98658659744919E-17
     -4.71465621321139E-15   0.00000000000000E+00   0.00000000000000E+00   0.00000000000000E+00   0.00000000000000E+00
     -2.29525415665575E-17  -3.69670881948877E-16  -3.92623423515435E-16  -1.92307097057840E-15
      8.23176152601792E-01
      6.58540922081434E-01   6.58540922081434E-01   0.00000000000000E+00   0.00000000000000E+00   4.78702898384383E-16
     -4.78661232151630E-19   4.78224237152231E-16   6.86357925734579E-15   0.00000000000000E+00   0.00000000000000E+00
      0.00000000000000E+00   0.00000000000000E+00  -1.03631324686831E-18  -5.36474027137444E-17  -5.46837159606127E-17
     -4.93976705624553E-15   0.00000000000000E+00   0.00000000000000E+00   0.00000000000000E+00   0.00000000000000E+00
     -2.29525657551864E-17  -4.00587955436432E-16  -4.23540521191619E-16  -1.92381220110025E-15
      9.23176152601792E-01
      7.38540922081434E-01   7.38540922081433E-01   0.00000000000000E+00   0.00000000000000E+00   5.13113338270593E-16
     -7.77838568631866E-21   5.13105559884907E-16   7.08660607841631E-15   0.00000000000000E+00   0.00000000000000E+00
      0.00000000000000E+00   0.00000000000000E+00  -1.03632050066524E-18  -5.85367532311300E-17  -5.95730737317952E-17
     -5.16205309483831E-15   0.00000000000000E+00   0.00000000000000E+00   0.00000000000000E+00   0.00000000000000E+00
     -2.29525899577011E-17  -4.30579896195411E-16  -4.53532486153112E-16  -1.92455298357800E-15
      1.00000000000000E+00
      8.00000000000000E-01   8.00000000000000E-01   0.00000000000000E+00   0.00000000000000E+00   5.38750978425973E-16
      8.10003572438405E-19   5.39560981998412E-16   7.25606300692791E-15   0.00000000000000E+00   0.00000000000000E+00
      0.00000000000000E+00   0.00000000000000E+00  -1.03632568397402E-18  -6.24229119281421E-17  -6.34592376121162E-17
     -5.33094126766849E-15   0.00000000000000E+00   0.00000000000000E+00   0.00000000000000E+00   0.00000000000000E+00
     -2.29526085573503E-17  -4.53149135828945E-16  -4.76101744386295E-16  -1.92512173925938E-15
}
