DF-ISE text

Info {
  version   = 1.0
  type      = xyplot
  datasets  = [
    "time"
    "Ntop OuterVoltage" "Ntop InnerVoltage" "Ntop QuasiFermiPotential" "Ntop DisplacementCurrent" "Ntop eCurrent"
    "Ntop hCurrent" "Ntop TotalCurrent" "Ntop Charge" "Ptop OuterVoltage" "Ptop InnerVoltage"
    "Ptop QuasiFermiPotential" "Ptop DisplacementCurrent" "Ptop eCurrent" "Ptop hCurrent" "Ptop TotalCurrent"
    "Ptop Charge" "Pbot OuterVoltage" "Pbot InnerVoltage" "Pbot QuasiFermiPotential" "Pbot DisplacementCurrent"
    "Pbot eCurrent" "Pbot hCurrent" "Pbot TotalCurrent" "Pbot Charge" ]
  functions = [
    Time
    OuterVoltage InnerVoltage QuasiFermiPotential DisplacementCurrent eCurrent
    hCurrent TotalCurrent Charge OuterVoltage InnerVoltage
    QuasiFermiPotential DisplacementCurrent eCurrent hCurrent TotalCurrent
    Charge OuterVoltage InnerVoltage QuasiFermiPotential DisplacementCurrent
    eCurrent hCurrent TotalCurrent Charge ]
}

Data {
      0.00000000000000E+00
      0.00000000000000E+00   0.00000000000000E+00   0.00000000000000E+00   0.00000000000000E+00  -8.55151960420181E-26
     -4.42213163596574E-18  -4.42213172148093E-18   4.82043538327669E-15   0.00000000000000E+00   0.00000000000000E+00
      0.00000000000000E+00   0.00000000000000E+00   8.55147072553228E-26   1.08371661232912E-19   1.08371746747620E-19
     -2.90273220226179E-15   0.00000000000000E+00   0.00000000000000E+00   0.00000000000000E+00   0.00000000000000E+00
      4.71032391211928E-31   4.31375997473284E-18   4.31375997473331E-18  -1.91770318101491E-15
      0.00000000000000E+00
      0.00000000000000E+00   0.00000000000000E+00   0.00000000000000E+00   0.00000000000000E+00   3.55510539519974E-27
     -7.54463424967435E-20  -7.54463389416381E-20   4.82043538338007E-15   0.00000000000000E+00   0.00000000000000E+00
      0.00000000000000E+00   0.00000000000000E+00  -3.55131167878791E-27   1.35709227148166E-22   1.35705675836488E-22
     -2.90273220226178E-15   0.00000000000000E+00   0.00000000000000E+00   0.00000000000000E+00   0.00000000000000E+00
     -3.29751280176275E-30   7.53106332690992E-20   7.53106332658017E-20  -1.91770318111828E-15
      1.00000000000000E-02
      8.00000000000000E-03   7.99999999999997E-03   0.00000000000000E+00   0.00000000000000E+00   2.77665524743139E-17
      1.65957616020866E-19   2.79325100903348E-17   4.84689002950589E-15   0.00000000000000E+00   0.00000000000000E+00
      0.00000000000000E+00   0.00000000000000E+00  -2.79502710815622E-19  -2.20384228602413E-18  -2.48334499683975E-18
     -2.92911253993069E-15   0.00000000000000E+00   0.00000000000000E+00   0.00000000000000E+00   0.00000000000000E+00
     -6.88169978758840E-18  -1.85674653059067E-17  -2.54491650934951E-17  -1.91777748957519E-15
      2.37355555555556E-02
      1.89884444444444E-02   1.89884444444444E-02   0.00000000000000E+00   0.00000000000000E+00   5.82121435894537E-17
      7.41805467649832E-19   5.89539490571036E-17   4.88312263880114E-15   0.00000000000000E+00   0.00000000000000E+00
      0.00000000000000E+00   0.00000000000000E+00  -5.45529353121036E-19  -4.72694726422901E-18  -5.27247661735005E-18
     -2.96524309613338E-15   0.00000000000000E+00   0.00000000000000E+00   0.00000000000000E+00   0.00000000000000E+00
     -1.33730849116776E-17  -4.03083875280759E-17  -5.36814724397535E-17  -1.91787954266776E-15
      4.28523965432099E-02
      3.42819172345679E-02   3.42819172345679E-02   0.00000000000000E+00   0.00000000000000E+00   9.01975242423928E-17
     -8.76126012950119E-19   8.93213982294426E-17   4.93335480393789E-15   0.00000000000000E+00   0.00000000000000E+00
      0.00000000000000E+00   0.00000000000000E+00  -7.68469110284343E-19  -7.55918397023922E-18  -8.32765308052356E-18
     -3.01533324833353E-15   0.00000000000000E+00   0.00000000000000E+00   0.00000000000000E+00   0.00000000000000E+00
     -1.86432158662803E-17  -6.23505292826388E-17  -8.09937451489191E-17  -1.91802155560436E-15
      6.94587910111385E-02
      5.55670328089108E-02   5.55670328089109E-02   0.00000000000000E+00   0.00000000000000E+00   1.22279797087733E-16
      2.11269830149281E-18   1.24392495389226E-16   5.00290114146872E-15   0.00000000000000E+00   0.00000000000000E+00
      0.00000000000000E+00   0.00000000000000E+00  -9.21704620741524E-19  -1.05885027422652E-17  -1.15102073630067E-17
     -3.08468196942201E-15   0.00000000000000E+00   0.00000000000000E+00   0.00000000000000E+00   0.00000000000000E+00
     -2.18522745156076E-17  -9.10300135106119E-17  -1.12882288026219E-16  -1.91821917204668E-15
      1.06488979578391E-01
      8.51911836627130E-02   8.51911836627130E-02   0.00000000000000E+00   0.00000000000000E+00   1.54529512685843E-16
      4.08638398150358E-19   1.54938151083993E-16   5.09901698055907E-15   0.00000000000000E+00   0.00000000000000E+00
      0.00000000000000E+00   0.00000000000000E+00  -1.00154028285384E-18  -1.41083993274950E-17  -1.51099396103489E-17
     -3.18052281700805E-15   0.00000000000000E+00   0.00000000000000E+00   0.00000000000000E+00   0.00000000000000E+00
     -2.28941089779730E-17  -1.16934102495671E-16  -1.39828211473644E-16  -1.91849416355101E-15
      1.57352000808211E-01
      1.25881600646569E-01   1.25881600646569E-01   0.00000000000000E+00   0.00000000000000E+00   1.89283873005106E-16
      6.11145374306673E-19   1.89895018379412E-16   5.22982009712099E-15   0.00000000000000E+00   0.00000000000000E+00
      0.00000000000000E+00   0.00000000000000E+00  -1.02967114107389E-18  -1.80726208098415E-17  -1.91022919509154E-17
     -3.31094827084813E-15   0.00000000000000E+00   0.00000000000000E+00   0.00000000000000E+00   0.00000000000000E+00
     -2.29523266394004E-17  -1.47840399789097E-16  -1.70792726428497E-16  -1.91887182627285E-15
      2.27215186190770E-01
      1.81772148952616E-01   1.81772148952616E-01   0.00000000000000E+00   0.00000000000000E+00   2.29973991191806E-16
     -4.42741676350871E-19   2.29531249515456E-16   5.40731775380864E-15   0.00000000000000E+00   0.00000000000000E+00
      0.00000000000000E+00   0.00000000000000E+00  -1.03563420267690E-18  -2.29237560242622E-17  -2.39593902269391E-17
     -3.48792723525012E-15   0.00000000000000E+00   0.00000000000000E+00   0.00000000000000E+00   0.00000000000000E+00
     -2.29524592018461E-17  -1.82619400086670E-16  -2.05571859288516E-16  -1.91939051855851E-15
      3.23176152601792E-01
      2.58540922081434E-01   2.58540922081434E-01   0.00000000000000E+00   0.00000000000000E+00   2.79021696947612E-16
     -4.04456525462546E-19   2.78617240422149E-16   5.64721081165922E-15   0.00000000000000E+00   0.00000000000000E+00
      0.00000000000000E+00   0.00000000000000E+00  -1.03624931496362E-18  -2.90113913557391E-17  -3.00476406707027E-17
     -3.72710788494884E-15   0.00000000000000E+00   0.00000000000000E+00   0.00000000000000E+00   0.00000000000000E+00
     -2.29524447650938E-17  -2.25617154986353E-16  -2.48569599751447E-16  -1.92010292671036E-15
      4.23176152601792E-01
      3.38540922081434E-01   3.38540922081433E-01   0.00000000000000E+00   0.00000000000000E+00   3.24873321156804E-16
     -9.52614558249631E-19   3.23920706598554E-16   5.89238166217032E-15   0.00000000000000E+00   0.00000000000000E+00
      0.00000000000000E+00   0.00000000000000E+00  -1.03627742482937E-18  -3.48885450081983E-17  -3.59248224330277E-17
     -3.97153641628352E-15   0.00000000000000E+00   0.00000000000000E+00   0.00000000000000E+00   0.00000000000000E+00
     -2.29524691859478E-17  -2.65043414979579E-16  -2.87995884165527E-16  -1.92084524588677E-15
      5.23176152601792E-01
      4.18540922081434E-01   4.18540922081434E-01   0.00000000000000E+00   0.00000000000000E+00   3.67202557718107E-16
      9.06112360263709E-19   3.68108670078371E-16   6.13238569836339E-15   0.00000000000000E+00   0.00000000000000E+00
      0.00000000000000E+00   0.00000000000000E+00  -1.03628648070049E-18  -4.04570434741697E-17  -4.14933299548702E-17
     -4.21079828252786E-15   0.00000000000000E+00   0.00000000000000E+00   0.00000000000000E+00   0.00000000000000E+00
     -2.29524932560650E-17  -3.03662846867435E-16  -3.26615340123500E-16  -1.92158741583551E-15
      6.23176152601792E-01
      4.98540922081434E-01   4.98540922081434E-01   0.00000000000000E+00   0.00000000000000E+00   4.07060059558087E-16
      7.27846807696661E-19   4.07787906365784E-16   6.36719144523676E-15   0.00000000000000E+00   0.00000000000000E+00
      0.00000000000000E+00   0.00000000000000E+00  -1.03629485000659E-18  -4.58628271348673E-17  -4.68991219848739E-17
     -4.44486209662996E-15   0.00000000000000E+00   0.00000000000000E+00   0.00000000000000E+00   0.00000000000000E+00
     -2.29525173973283E-17  -3.37936266983581E-16  -3.60888784380909E-16  -1.92232934860680E-15
      7.23176152601792E-01
      5.78540922081434E-01   5.78540922081434E-01   0.00000000000000E+00   0.00000000000000E+00   4.45037017710875E-16
      6.38209691389795E-19   4.45675227402265E-16   6.59741987417452E-15   0.00000000000000E+00   0.00000000000000E+00
      0.00000000000000E+00   0.00000000000000E+00  -1.03630269884828E-18  -5.12301898920799E-17  -5.22664925909282E-17
     -4.67434891295228E-15   0.00000000000000E+00   0.00000000000000E+00   0.00000000000000E+00   0.00000000000000E+00
     -2.29525415662524E-17  -3.70456193245084E-16  -3.93408734811337E-16  -1.92307096122224E-15
      8.23176152601792E-01
      6.58540922081434E-01   6.58540922081434E-01   0.00000000000000E+00   0.00000000000000E+00   4.81477668259437E-16
     -5.98233420396862E-19   4.80879434839040E-16   6.82376684598516E-15   0.00000000000000E+00   0.00000000000000E+00
      0.00000000000000E+00   0.00000000000000E+00  -1.03631004983415E-18  -5.66683623343144E-17  -5.77046723841485E-17
     -4.89995466602415E-15   0.00000000000000E+00   0.00000000000000E+00   0.00000000000000E+00   0.00000000000000E+00
     -2.29525657544964E-17  -4.00222196700395E-16  -4.23174762454891E-16  -1.92381217996102E-15
      9.23176152601792E-01
      7.38540922081434E-01   7.38540922081433E-01   0.00000000000000E+00   0.00000000000000E+00   5.16684509437734E-16
     -4.87822641918742E-19   5.16196686795815E-16   7.04647823293615E-15   0.00000000000000E+00   0.00000000000000E+00
      0.00000000000000E+00   0.00000000000000E+00  -1.03631684812323E-18  -6.23701560702494E-17  -6.34064729183726E-17
     -5.12192529825393E-15   0.00000000000000E+00   0.00000000000000E+00   0.00000000000000E+00   0.00000000000000E+00
     -2.29525899561022E-17  -4.29837623921340E-16  -4.52790213877442E-16  -1.92455293468221E-15
      1.00000000000000E+00
      8.00000000000000E-01   8.00000000000000E-01   0.00000000000000E+00   0.00000000000000E+00   5.43153646739470E-16
     -2.43971882795266E-19   5.42909674856674E-16   7.21507795400696E-15   0.00000000000000E+00   0.00000000000000E+00
      0.00000000000000E+00   0.00000000000000E+00  -1.03632157725514E-18  -6.71055357804050E-17  -6.81418573576601E-17
     -5.28995630960308E-15   0.00000000000000E+00   0.00000000000000E+00   0.00000000000000E+00   0.00000000000000E+00
     -2.29526085542471E-17  -4.51815208944767E-16  -4.74767817499015E-16  -1.92512164440388E-15
}
