DF-ISE text

Info {
  version   = 1.0
  type      = xyplot
  datasets  = [
    "time"
    "Ntop OuterVoltage" "Ntop InnerVoltage" "Ntop QuasiFermiPotential" "Ntop DisplacementCurrent" "Ntop eCurrent"
    "Ntop hCurrent" "Ntop TotalCurrent" "Ntop Charge" "Ptop OuterVoltage" "Ptop InnerVoltage"
    "Ptop QuasiFermiPotential" "Ptop DisplacementCurrent" "Ptop eCurrent" "Ptop hCurrent" "Ptop TotalCurrent"
    "Ptop Charge" "Pbot OuterVoltage" "Pbot InnerVoltage" "Pbot QuasiFermiPotential" "Pbot DisplacementCurrent"
    "Pbot eCurrent" "Pbot hCurrent" "Pbot TotalCurrent" "Pbot Charge" ]
  functions = [
    Time
    OuterVoltage InnerVoltage QuasiFermiPotential DisplacementCurrent eCurrent
    hCurrent TotalCurrent Charge OuterVoltage InnerVoltage
    QuasiFermiPotential DisplacementCurrent eCurrent hCurrent TotalCurrent
    Charge OuterVoltage InnerVoltage QuasiFermiPotential DisplacementCurrent
    eCurrent hCurrent TotalCurrent Charge ]
}

Data {
      0.00000000000000E+00
      0.00000000000000E+00   0.00000000000000E+00   0.00000000000000E+00   0.00000000000000E+00   1.01206553893647E-25
     -4.57853512538688E-18  -4.57853502418033E-18   2.75943837527459E-15   0.00000000000000E+00   0.00000000000000E+00
      0.00000000000000E+00   0.00000000000000E+00  -1.01179950492523E-25   2.10990332957416E-19   2.10990231777466E-19
     -8.41735194254096E-16   0.00000000000000E+00   0.00000000000000E+00   0.00000000000000E+00   0.00000000000000E+00
     -2.66191888898050E-29   4.36754479242948E-18   4.36754479240286E-18  -1.91770318102049E-15
      0.00000000000000E+00
      0.00000000000000E+00   0.00000000000000E+00   0.00000000000000E+00   0.00000000000000E+00   1.59471792528487E-26
     -2.36728579015463E-19  -2.36728563068283E-19   2.75943837537797E-15   0.00000000000000E+00   0.00000000000000E+00
      0.00000000000000E+00   0.00000000000000E+00  -1.59483251769894E-26   6.34926559417409E-23   6.34767076165639E-23
     -8.41735194254101E-16   0.00000000000000E+00   0.00000000000000E+00   0.00000000000000E+00   0.00000000000000E+00
      1.64899814687540E-30   2.36665086359018E-19   2.36665086360667E-19  -1.91770318112387E-15
      1.00000000000000E-02
      8.00000000000000E-03   7.99999999999997E-03   0.00000000000000E+00   0.00000000000000E+00   2.77924994062880E-17
      2.85694986236486E-18   3.06494492686529E-17   2.76724051636795E-15   0.00000000000000E+00   0.00000000000000E+00
      0.00000000000000E+00   0.00000000000000E+00  -2.79520712153627E-19  -2.20987786436791E-18  -2.48939857652154E-18
     -8.49463026786333E-16   0.00000000000000E+00   0.00000000000000E+00   0.00000000000000E+00   0.00000000000000E+00
     -6.88169980088221E-18  -2.12783508912491E-17  -2.81600506921314E-17  -1.91777748958162E-15
      2.37355555555556E-02
      1.89884444444444E-02   1.89884444444444E-02   0.00000000000000E+00   0.00000000000000E+00   5.82660879668656E-17
      2.54927435353633E-18   6.08153623204019E-17   2.77788711718499E-15   0.00000000000000E+00   0.00000000000000E+00
      0.00000000000000E+00   0.00000000000000E+00  -5.45546376413524E-19  -4.74882022150864E-18  -5.29436659792216E-18
     -8.60007574509560E-16   0.00000000000000E+00   0.00000000000000E+00   0.00000000000000E+00   0.00000000000000E+00
     -1.33730849302369E-17  -4.21479107922429E-17  -5.55209957224797E-17  -1.91787954267543E-15
      4.28523965432099E-02
      3.42819172345679E-02   3.42819172345679E-02   0.00000000000000E+00   0.00000000000000E+00   9.02789876385376E-17
     -1.24301561493988E-18   8.90359720235977E-17   2.79257458051107E-15   0.00000000000000E+00   0.00000000000000E+00
      0.00000000000000E+00   0.00000000000000E+00  -7.68492742439713E-19  -7.58571343874821E-18  -8.35420618118793E-18
     -8.74553024897117E-16   0.00000000000000E+00   0.00000000000000E+00   0.00000000000000E+00   0.00000000000000E+00
     -1.86432158819730E-17  -6.20385499604368E-17  -8.06817658424098E-17  -1.91802155561395E-15
      6.94587910111385E-02
      5.55670328089108E-02   5.55670328089109E-02   0.00000000000000E+00   0.00000000000000E+00   1.22383582464143E-16
     -4.02577050850507E-20   1.22343324759058E-16   2.81277586765670E-15   0.00000000000000E+00   0.00000000000000E+00
      0.00000000000000E+00   0.00000000000000E+00  -9.21732770556586E-19  -1.06262597160660E-17  -1.15479924866226E-17
     -8.94556695597197E-16   0.00000000000000E+00   0.00000000000000E+00   0.00000000000000E+00   0.00000000000000E+00
     -2.18522745233534E-17  -8.89430577490824E-17  -1.10795332272436E-16  -1.91821917205951E-15
      1.06488979578391E-01
      8.51911836627130E-02   8.51911836627130E-02   0.00000000000000E+00   0.00000000000000E+00   1.54643620821695E-16
     -2.23027104369981E-18   1.52413349777995E-16   2.84045495432408E-15   0.00000000000000E+00   0.00000000000000E+00
      0.00000000000000E+00   0.00000000000000E+00  -1.00160336236072E-18  -1.32507368766425E-17  -1.42523402390033E-17
     -9.21960790754366E-16   0.00000000000000E+00   0.00000000000000E+00   0.00000000000000E+00   0.00000000000000E+00
     -2.28943282573108E-17  -1.15266681281681E-16  -1.38161009538992E-16  -1.91849416356972E-15
      1.58026773133214E-01
      1.26421418506571E-01   1.26421418506572E-01   0.00000000000000E+00   0.00000000000000E+00   1.89807890114414E-16
      1.05210970226854E-18   1.90859999816682E-16   2.87820083356227E-15   0.00000000000000E+00   0.00000000000000E+00
      0.00000000000000E+00   0.00000000000000E+00  -1.02984807735690E-18  -1.81553090382840E-17  -1.91851571156409E-17
     -9.59323997276873E-16   0.00000000000000E+00   0.00000000000000E+00   0.00000000000000E+00   0.00000000000000E+00
     -2.29523293908473E-17  -1.48722513310194E-16  -1.71674842701041E-16  -1.91887683628540E-15
      2.28816795791517E-01
      1.83053436633213E-01   1.83053436633213E-01   0.00000000000000E+00   0.00000000000000E+00   2.30912360149516E-16
     -1.47064958139190E-19   2.30765295191377E-16   2.92872214438725E-15   0.00000000000000E+00   0.00000000000000E+00
      0.00000000000000E+00   0.00000000000000E+00  -1.03569962678396E-18  -2.30281829509695E-17  -2.40638825777534E-17
     -1.00931973514468E-15   0.00000000000000E+00   0.00000000000000E+00   0.00000000000000E+00   0.00000000000000E+00
     -2.29524575025058E-17  -1.83748955111118E-16  -2.06701412613623E-16  -1.91940240924257E-15
      3.26050824691732E-01
      2.60840659753386E-01   2.60840659753386E-01   0.00000000000000E+00   0.00000000000000E+00   2.80414595458043E-16
     -5.71301385493093E-20   2.80357465319493E-16   2.99592015202881E-15   0.00000000000000E+00   0.00000000000000E+00
      0.00000000000000E+00   0.00000000000000E+00  -1.03628262864179E-18  -2.91271983017524E-17  -3.01634809303942E-17
     -1.07579588460866E-15   0.00000000000000E+00   0.00000000000000E+00   0.00000000000000E+00   0.00000000000000E+00
     -2.29524454093408E-17  -2.27241538979758E-16  -2.50193984389099E-16  -1.92012426742015E-15
      4.26050824691732E-01
      3.40840659753386E-01   3.40840659753386E-01   0.00000000000000E+00   0.00000000000000E+00   3.26050193379868E-16
      1.49988993068090E-19   3.26200182372936E-16   3.06270370572833E-15   0.00000000000000E+00   0.00000000000000E+00
      0.00000000000000E+00   0.00000000000000E+00  -1.03630866990265E-18  -3.48874016186112E-17  -3.59237102885138E-17
     -1.14183712205593E-15   0.00000000000000E+00   0.00000000000000E+00   0.00000000000000E+00   0.00000000000000E+00
     -2.29524698752073E-17  -2.67324002209214E-16  -2.90276472084422E-16  -1.92086658367240E-15
      5.26050824691732E-01
      4.20840659753386E-01   4.20840659753385E-01   0.00000000000000E+00   0.00000000000000E+00   3.68145234121543E-16
      7.67890502955667E-19   3.68913124624499E-16   3.12736972189848E-15   0.00000000000000E+00   0.00000000000000E+00
      0.00000000000000E+00   0.00000000000000E+00  -1.03631771652230E-18  -4.03040365332569E-17  -4.13403542497792E-17
     -1.20576097343178E-15   0.00000000000000E+00   0.00000000000000E+00   0.00000000000000E+00   0.00000000000000E+00
     -2.29524939495346E-17  -3.04620276425184E-16  -3.27572770374719E-16  -1.92160874846670E-15
      6.26050824691732E-01
      5.00840659753386E-01   5.00840659753386E-01   0.00000000000000E+00   0.00000000000000E+00   4.07701570414045E-16
     -4.15300253716701E-20   4.07660040388673E-16   3.19004941952992E-15   0.00000000000000E+00   0.00000000000000E+00
      0.00000000000000E+00   0.00000000000000E+00  -1.03632612384330E-18  -4.54659960944800E-17  -4.65023222183233E-17
     -1.26769874540726E-15   0.00000000000000E+00   0.00000000000000E+00   0.00000000000000E+00   0.00000000000000E+00
     -2.29525180918291E-17  -3.38205200078521E-16  -3.61157718170350E-16  -1.92235067412266E-15
      7.26050824691732E-01
      5.80840659753386E-01   5.80840659753386E-01   0.00000000000000E+00   0.00000000000000E+00   4.45315027406443E-16
     -2.91086192819421E-19   4.45023941213624E-16   3.25077150687466E-15   0.00000000000000E+00   0.00000000000000E+00
      0.00000000000000E+00   0.00000000000000E+00  -1.03633403309868E-18  -5.05035844574044E-17  -5.15399184905030E-17
     -1.32767922825361E-15   0.00000000000000E+00   0.00000000000000E+00   0.00000000000000E+00   0.00000000000000E+00
     -2.29525422614754E-17  -3.70531480461645E-16  -3.93484022723121E-16  -1.92309227862105E-15
      8.26050824691732E-01
      6.60840659753386E-01   6.60840659753386E-01   0.00000000000000E+00   0.00000000000000E+00   4.81308064921178E-16
     -7.14048690099892E-19   4.80594016231078E-16   3.30946566591597E-15   0.00000000000000E+00   0.00000000000000E+00
      0.00000000000000E+00   0.00000000000000E+00  -1.03634147036139E-18  -5.55330678991976E-17  -5.65694093695590E-17
     -1.38563217573418E-15   0.00000000000000E+00   0.00000000000000E+00   0.00000000000000E+00   0.00000000000000E+00
     -2.29525664503513E-17  -4.01072040411168E-16  -4.24024606861519E-16  -1.92383349018180E-15
      9.26050824691732E-01
      7.40840659753386E-01   7.40840659753386E-01   0.00000000000000E+00   0.00000000000000E+00   5.15900644586210E-16
      1.02026199484318E-18   5.16920906581053E-16   3.36597678467741E-15   0.00000000000000E+00   0.00000000000000E+00
      0.00000000000000E+00   0.00000000000000E+00  -1.03634838087992E-18  -6.06523947382923E-17  -6.16887431191722E-17
     -1.44140254171595E-15   0.00000000000000E+00   0.00000000000000E+00   0.00000000000000E+00   0.00000000000000E+00
     -2.29525906526682E-17  -4.32279572809213E-16  -4.55232163461881E-16  -1.92457424296146E-15
      1.00000000000000E+00
      8.00000000000000E-01   8.00000000000000E-01   0.00000000000000E+00   0.00000000000000E+00   5.40778489539817E-16
      6.82232927573555E-19   5.41460722467390E-16   3.40625482981569E-15   0.00000000000000E+00   0.00000000000000E+00
      0.00000000000000E+00   0.00000000000000E+00  -1.03635307189353E-18  -6.46130947291492E-17  -6.56494478010428E-17
     -1.48113314358228E-15   0.00000000000000E+00   0.00000000000000E+00   0.00000000000000E+00   0.00000000000000E+00
     -2.29526085556154E-17  -4.52858666110733E-16  -4.75811274666348E-16  -1.92512168623341E-15
}
