DF-ISE text

Info {
  version   = 1.0
  type      = xyplot
  datasets  = [
    "time"
    "Ntop OuterVoltage" "Ntop InnerVoltage" "Ntop QuasiFermiPotential" "Ntop DisplacementCurrent" "Ntop eCurrent"
    "Ntop hCurrent" "Ntop TotalCurrent" "Ntop Charge" "Ptop OuterVoltage" "Ptop InnerVoltage"
    "Ptop QuasiFermiPotential" "Ptop DisplacementCurrent" "Ptop eCurrent" "Ptop hCurrent" "Ptop TotalCurrent"
    "Ptop Charge" "Pbot OuterVoltage" "Pbot InnerVoltage" "Pbot QuasiFermiPotential" "Pbot DisplacementCurrent"
    "Pbot eCurrent" "Pbot hCurrent" "Pbot TotalCurrent" "Pbot Charge" ]
  functions = [
    Time
    OuterVoltage InnerVoltage QuasiFermiPotential DisplacementCurrent eCurrent
    hCurrent TotalCurrent Charge OuterVoltage InnerVoltage
    QuasiFermiPotential DisplacementCurrent eCurrent hCurrent TotalCurrent
    Charge OuterVoltage InnerVoltage QuasiFermiPotential DisplacementCurrent
    eCurrent hCurrent TotalCurrent Charge ]
}

Data {
      0.00000000000000E+00
      0.00000000000000E+00   0.00000000000000E+00   0.00000000000000E+00   0.00000000000000E+00  -8.80190100340380E-26
     -4.25860034700676E-18  -4.25860043502577E-18   3.02651437644920E-15   0.00000000000000E+00   0.00000000000000E+00
      0.00000000000000E+00   0.00000000000000E+00   8.80484467212043E-26  -2.28826127324953E-20  -2.28825246840486E-20
     -1.10881119541862E-15   0.00000000000000E+00   0.00000000000000E+00   0.00000000000000E+00   0.00000000000000E+00
     -2.94447062006810E-29   4.28148295973926E-18   4.28148295970982E-18  -1.91770318103058E-15
      0.00000000000000E+00
      0.00000000000000E+00   0.00000000000000E+00   0.00000000000000E+00   0.00000000000000E+00  -6.03063754729460E-28
      1.43836482735595E-18   1.43836482675288E-18   3.02651437655257E-15   0.00000000000000E+00   0.00000000000000E+00
      0.00000000000000E+00   0.00000000000000E+00   6.05886152234927E-28  -7.61590463342639E-21  -7.61590402754024E-21
     -1.10881119541862E-15   0.00000000000000E+00   0.00000000000000E+00   0.00000000000000E+00   0.00000000000000E+00
     -2.35564172105366E-30  -1.43074892272299E-18  -1.43074892272534E-18  -1.91770318113396E-15
      1.00000000000000E-02
      8.00000000000000E-03   7.99999999999997E-03   0.00000000000000E+00   0.00000000000000E+00   2.77280855084380E-17
     -6.22539671740500E-20   2.76658315412639E-17   3.03443294103963E-15   0.00000000000000E+00   0.00000000000000E+00
      0.00000000000000E+00   0.00000000000000E+00  -2.79512144435301E-19  -2.12004896705235E-18  -2.39956111148765E-18
     -1.11665545144672E-15   0.00000000000000E+00   0.00000000000000E+00   0.00000000000000E+00   0.00000000000000E+00
     -6.88169980282751E-18  -1.83845706269488E-17  -2.52662704297763E-17  -1.91777748959291E-15
      2.37355555555556E-02
      1.89884444444444E-02   1.89884444444444E-02   0.00000000000000E+00   0.00000000000000E+00   5.81251852809165E-17
      5.14364861385523E-19   5.86395501423020E-17   3.04525292167028E-15   0.00000000000000E+00   0.00000000000000E+00
      0.00000000000000E+00   0.00000000000000E+00  -5.45530172369883E-19  -4.52012975336155E-18  -5.06565992573143E-18
     -1.12737337898172E-15   0.00000000000000E+00   0.00000000000000E+00   0.00000000000000E+00   0.00000000000000E+00
     -1.33730849328965E-17  -4.02008052836741E-17  -5.35738902165706E-17  -1.91787954268857E-15
      4.28523965432099E-02
      3.42819172345679E-02   3.42819172345679E-02   0.00000000000000E+00   0.00000000000000E+00   9.00478962770287E-17
      1.24161989523102E-18   9.12895161722597E-17   3.06020698995766E-15   0.00000000000000E+00   0.00000000000000E+00
      0.00000000000000E+00   0.00000000000000E+00  -7.68468782733966E-19  -7.26825161641074E-18  -8.03672039914471E-18
     -1.14218543432758E-15   0.00000000000000E+00   0.00000000000000E+00   0.00000000000000E+00   0.00000000000000E+00
     -1.86432158841573E-17  -6.46095798889577E-17  -8.32527957731150E-17  -1.91802155563008E-15
      6.94587910111385E-02
      5.55670328089108E-02   5.55670328089109E-02   0.00000000000000E+00   0.00000000000000E+00   1.22045533284930E-16
      1.40906158228287E-20   1.22059623900753E-16   3.08082674067048E-15   0.00000000000000E+00   0.00000000000000E+00
      0.00000000000000E+00   0.00000000000000E+00  -9.21693096009626E-19  -1.00413686072026E-17  -1.09630617032122E-17
     -1.16260756858970E-15   0.00000000000000E+00   0.00000000000000E+00   0.00000000000000E+00   0.00000000000000E+00
     -2.18522745243908E-17  -8.92442876731502E-17  -1.11096562197541E-16  -1.91821917208078E-15
      1.06488979578391E-01
      8.51911836627130E-02   8.51911836627130E-02   0.00000000000000E+00   0.00000000000000E+00   1.54173005784694E-16
      5.59726851156456E-20   1.54228978469809E-16   3.10917621034239E-15   0.00000000000000E+00   0.00000000000000E+00
      0.00000000000000E+00   0.00000000000000E+00  -1.00154226094279E-18  -1.35821068039693E-17  -1.45836490649120E-17
     -1.19068204674176E-15   0.00000000000000E+00   0.00000000000000E+00   0.00000000000000E+00   0.00000000000000E+00
     -2.28941089791751E-17  -1.16751220425722E-16  -1.39645329404897E-16  -1.91849416360063E-15
      1.57352000808211E-01
      1.25881600646569E-01   1.25881600646569E-01   0.00000000000000E+00   0.00000000000000E+00   1.88743012164397E-16
      2.62015014072763E-19   1.89005027178470E-16   3.14751245161483E-15   0.00000000000000E+00   0.00000000000000E+00
      0.00000000000000E+00   0.00000000000000E+00  -1.02967321849332E-18  -1.73547529981430E-17  -1.83844262166363E-17
     -1.22864062526069E-15   0.00000000000000E+00   0.00000000000000E+00   0.00000000000000E+00   0.00000000000000E+00
     -2.29523266394041E-17  -1.47668274322429E-16  -1.70620600961834E-16  -1.91887182635414E-15
      2.27215186190770E-01
      1.81772148952616E-01   1.81772148952616E-01   0.00000000000000E+00   0.00000000000000E+00   2.29163532107776E-16
      1.93833963363009E-19   2.29357366071139E-16   3.19915817353784E-15   0.00000000000000E+00   0.00000000000000E+00
      0.00000000000000E+00   0.00000000000000E+00  -1.03563628668947E-18  -2.19538080003010E-17  -2.29894442869905E-17
     -1.27976765482393E-15   0.00000000000000E+00   0.00000000000000E+00   0.00000000000000E+00   0.00000000000000E+00
     -2.29524592018498E-17  -1.83415462582298E-16  -2.06367921784148E-16  -1.91939051871392E-15
      3.23176152601792E-01
      2.58540922081434E-01   2.58540922081434E-01   0.00000000000000E+00   0.00000000000000E+00   2.77867618638269E-16
     -2.15490740178884E-20   2.77846069564251E-16   3.26845045829950E-15   0.00000000000000E+00   0.00000000000000E+00
      0.00000000000000E+00   0.00000000000000E+00  -1.03625134421157E-18  -2.76808210593045E-17  -2.87170724035160E-17
     -1.34834753122654E-15   0.00000000000000E+00   0.00000000000000E+00   0.00000000000000E+00   0.00000000000000E+00
     -2.29524447651133E-17  -2.26176552395622E-16  -2.49128997160735E-16  -1.92010292707296E-15
      4.23176152601792E-01
      3.38540922081434E-01   3.38540922081433E-01   0.00000000000000E+00   0.00000000000000E+00   3.23399044585794E-16
     -4.91753737409005E-20   3.23349869212054E-16   3.33893057590312E-15   0.00000000000000E+00   0.00000000000000E+00
      0.00000000000000E+00   0.00000000000000E+00  -1.03627955109028E-18  -3.32204454988779E-17  -3.42567250499682E-17
     -1.41808532917249E-15   0.00000000000000E+00   0.00000000000000E+00   0.00000000000000E+00   0.00000000000000E+00
     -2.29524691859758E-17  -2.66140674976110E-16  -2.89093144162086E-16  -1.92084524673063E-15
      5.23176152601792E-01
      4.18540922081434E-01   4.18540922081434E-01   0.00000000000000E+00   0.00000000000000E+00   3.65388877128998E-16
     -3.37140330620159E-19   3.65051736798378E-16   3.40788618566662E-15   0.00000000000000E+00   0.00000000000000E+00
      0.00000000000000E+00   0.00000000000000E+00  -1.03628881494607E-18  -3.84435956477118E-17  -3.94798844626579E-17
     -1.48629876791725E-15   0.00000000000000E+00   0.00000000000000E+00   0.00000000000000E+00   0.00000000000000E+00
     -2.29524932561272E-17  -3.02619359079592E-16  -3.25571852335720E-16  -1.92158741774937E-15
      6.23176152601792E-01
      4.98540922081434E-01   4.98540922081434E-01   0.00000000000000E+00   0.00000000000000E+00   4.04818240567113E-16
      4.11930408474125E-19   4.05230170975587E-16   3.47547050798841E-15   0.00000000000000E+00   0.00000000000000E+00
      0.00000000000000E+00   0.00000000000000E+00  -1.03629743893250E-18  -4.34126732012942E-17  -4.44489706402268E-17
     -1.55314115509886E-15   0.00000000000000E+00   0.00000000000000E+00   0.00000000000000E+00   0.00000000000000E+00
     -2.29525173974677E-17  -3.37828682937892E-16  -3.60781200335360E-16  -1.92232935288954E-15
      7.23176152601792E-01
      5.78540922081434E-01   5.78540922081434E-01   0.00000000000000E+00   0.00000000000000E+00   4.42216564349957E-16
     -3.93944257738457E-19   4.41822620092219E-16   3.54175413003349E-15   0.00000000000000E+00   0.00000000000000E+00
      0.00000000000000E+00   0.00000000000000E+00  -1.03630559261873E-18  -4.81736692028832E-17  -4.92099747955019E-17
     -1.61868315923572E-15   0.00000000000000E+00   0.00000000000000E+00   0.00000000000000E+00   0.00000000000000E+00
     -2.29525415665646E-17  -3.69660103730152E-16  -3.92612645296717E-16  -1.92307097079777E-15
      8.23176152601792E-01
      6.58540922081434E-01   6.58540922081434E-01   0.00000000000000E+00   0.00000000000000E+00   4.77885353506127E-16
      1.34696458285169E-19   4.78020049964412E-16   3.60672743287047E-15   0.00000000000000E+00   0.00000000000000E+00
      0.00000000000000E+00   0.00000000000000E+00  -1.03631334647685E-18  -5.28192531793206E-17  -5.38555665257974E-17
     -1.68291523123972E-15   0.00000000000000E+00   0.00000000000000E+00   0.00000000000000E+00   0.00000000000000E+00
     -2.29525657552040E-17  -4.01211917683410E-16  -4.24164483438614E-16  -1.92381220163074E-15
      9.23176152601792E-01
      7.38540922081434E-01   7.38540922081433E-01   0.00000000000000E+00   0.00000000000000E+00   5.12063333751923E-16
     -2.49925618995179E-19   5.11813408132928E-16   3.67030860288961E-15   0.00000000000000E+00   0.00000000000000E+00
      0.00000000000000E+00   0.00000000000000E+00  -1.03632061407911E-18  -5.74705098487718E-17  -5.85068304628509E-17
     -1.74575561800812E-15   0.00000000000000E+00   0.00000000000000E+00   0.00000000000000E+00   0.00000000000000E+00
     -2.29525899577434E-17  -4.30353987712334E-16  -4.53306577670077E-16  -1.92455298488148E-15
      1.00000000000000E+00
      8.00000000000000E-01   8.00000000000000E-01   0.00000000000000E+00   0.00000000000000E+00   5.37489695673933E-16
      8.11464793458674E-19   5.38301160467392E-16   3.71813268356360E-15   0.00000000000000E+00   0.00000000000000E+00
      0.00000000000000E+00   0.00000000000000E+00  -1.03632581951551E-18  -6.11415968690884E-17  -6.21779226886039E-17
     -1.79301094166461E-15   0.00000000000000E+00   0.00000000000000E+00   0.00000000000000E+00   0.00000000000000E+00
     -2.29526085574364E-17  -4.53170629221352E-16  -4.76123237778788E-16  -1.92512174189898E-15
}
