DF-ISE text

Info {
  version   = 1.0
  type      = xyplot
  datasets  = [
    "time"
    "Ntop OuterVoltage" "Ntop InnerVoltage" "Ntop QuasiFermiPotential" "Ntop DisplacementCurrent" "Ntop eCurrent"
    "Ntop hCurrent" "Ntop TotalCurrent" "Ntop Charge" "Ptop OuterVoltage" "Ptop InnerVoltage"
    "Ptop QuasiFermiPotential" "Ptop DisplacementCurrent" "Ptop eCurrent" "Ptop hCurrent" "Ptop TotalCurrent"
    "Ptop Charge" "Pbot OuterVoltage" "Pbot InnerVoltage" "Pbot QuasiFermiPotential" "Pbot DisplacementCurrent"
    "Pbot eCurrent" "Pbot hCurrent" "Pbot TotalCurrent" "Pbot Charge" ]
  functions = [
    Time
    OuterVoltage InnerVoltage QuasiFermiPotential DisplacementCurrent eCurrent
    hCurrent TotalCurrent Charge OuterVoltage InnerVoltage
    QuasiFermiPotential DisplacementCurrent eCurrent hCurrent TotalCurrent
    Charge OuterVoltage InnerVoltage QuasiFermiPotential DisplacementCurrent
    eCurrent hCurrent TotalCurrent Charge ]
}

Data {
      0.00000000000000E+00
      0.00000000000000E+00   0.00000000000000E+00   0.00000000000000E+00   0.00000000000000E+00  -2.14817780196549E-25
     -4.49231175646051E-18  -4.49231197127829E-18   3.13244178811330E-15   0.00000000000000E+00   0.00000000000000E+00
      0.00000000000000E+00   0.00000000000000E+00   2.14823652116329E-25   4.94635359097013E-20   4.94637507333534E-20
     -1.21473860709824E-15   0.00000000000000E+00   0.00000000000000E+00   0.00000000000000E+00   0.00000000000000E+00
     -5.88915299677432E-30   4.44284822055082E-18   4.44284822054493E-18  -1.91770318101506E-15
      0.00000000000000E+00
      0.00000000000000E+00   0.00000000000000E+00   0.00000000000000E+00   0.00000000000000E+00   7.63289161758519E-27
     -5.76453407149947E-19  -5.76453399517056E-19   3.13244178821668E-15   0.00000000000000E+00   0.00000000000000E+00
      0.00000000000000E+00   0.00000000000000E+00  -7.63778639445728E-27   6.31020232004930E-21   6.31019468226291E-21
     -1.21473860709825E-15   0.00000000000000E+00   0.00000000000000E+00   0.00000000000000E+00   0.00000000000000E+00
      5.41792905494434E-30   5.70143204829375E-19   5.70143204834793E-19  -1.91770318111844E-15
      1.00000000000000E-01
      8.00000000000000E-02   8.00000000000000E-02   0.00000000000000E+00   0.00000000000000E+00   1.49291098766533E-16
     -1.70022302189211E-19   1.49121076464344E-16   3.24223006710354E-15   0.00000000000000E+00   0.00000000000000E+00
      0.00000000000000E+00   0.00000000000000E+00  -9.93419801741787E-19  -1.33346631098516E-17  -1.43280829115934E-17
     -1.32378408862585E-15   0.00000000000000E+00   0.00000000000000E+00   0.00000000000000E+00   0.00000000000000E+00
     -2.28396109789334E-17  -1.11953382573817E-16  -1.34792993552751E-16  -1.91844597847769E-15
      2.00000000000000E-01
      1.60000000000000E-01   1.60000000000000E-01   0.00000000000000E+00   0.00000000000000E+00   2.14411250748134E-16
     -2.41881542336292E-19   2.14169369205798E-16   3.34953787678105E-15   0.00000000000000E+00   0.00000000000000E+00
      0.00000000000000E+00   0.00000000000000E+00  -1.03467207811084E-18  -2.07299986943813E-17  -2.17646707724922E-17
     -1.43034941053900E-15   0.00000000000000E+00   0.00000000000000E+00   0.00000000000000E+00   0.00000000000000E+00
     -2.29524633386434E-17  -1.69452235094662E-16  -1.92404698433306E-16  -1.91918846624206E-15
      3.00000000000000E-01
      2.40000000000000E-01   2.40000000000000E-01   0.00000000000000E+00   0.00000000000000E+00   2.67325685754157E-16
     -7.89117114728172E-19   2.66536568639429E-16   3.45463366836581E-15   0.00000000000000E+00   0.00000000000000E+00
      0.00000000000000E+00   0.00000000000000E+00  -1.03622003746449E-18  -2.71933973579401E-17  -2.82296173954045E-17
     -1.53470279538384E-15   0.00000000000000E+00   0.00000000000000E+00   0.00000000000000E+00   0.00000000000000E+00
     -2.29524423937162E-17  -2.15354508850309E-16  -2.38306951244025E-16  -1.91993087298196E-15
      4.00000000000000E-01
      3.20000000000000E-01   3.20000000000000E-01   0.00000000000000E+00   0.00000000000000E+00   3.14307355697441E-16
     -1.07867624920734E-19   3.14199488072520E-16   3.55757435349042E-15   0.00000000000000E+00   0.00000000000000E+00
      0.00000000000000E+00   0.00000000000000E+00  -1.03627483274150E-18  -3.32462137482615E-17  -3.42824885810031E-17
     -1.63690113847347E-15   0.00000000000000E+00   0.00000000000000E+00   0.00000000000000E+00   0.00000000000000E+00
     -2.29524636555993E-17  -2.56964535835918E-16  -2.79916999491517E-16  -1.92067321501694E-15
      5.00000000000000E-01
      4.00000000000000E-01   4.00000000000000E-01   0.00000000000000E+00   0.00000000000000E+00   3.57427220832025E-16
      9.92984442411472E-19   3.58420205274436E-16   3.65831936595822E-15   0.00000000000000E+00   0.00000000000000E+00
      0.00000000000000E+00   0.00000000000000E+00  -1.03628448377781E-18  -3.89658222603396E-17  -4.00021067441175E-17
     -1.73690393861860E-15   0.00000000000000E+00   0.00000000000000E+00   0.00000000000000E+00   0.00000000000000E+00
     -2.29524876670966E-17  -2.95465610863223E-16  -3.18418098530319E-16  -1.92141542733961E-15
      6.00000000000000E-01
      4.80000000000000E-01   4.80000000000000E-01   0.00000000000000E+00   0.00000000000000E+00   3.97821713748240E-16
      9.35905451652096E-20   3.97915304293405E-16   3.75677954092881E-15   0.00000000000000E+00   0.00000000000000E+00
      0.00000000000000E+00   0.00000000000000E+00  -1.03629296385262E-18  -4.44348992468435E-17  -4.54711922106961E-17
     -1.83462211807446E-15   0.00000000000000E+00   0.00000000000000E+00   0.00000000000000E+00   0.00000000000000E+00
     -2.29525117994165E-17  -3.29491600283293E-16  -3.52444112082709E-16  -1.92215742285435E-15
      7.00000000000000E-01
      5.60000000000000E-01   5.60000000000000E-01   0.00000000000000E+00   0.00000000000000E+00   4.36140557717682E-16
     -4.91870565340196E-19   4.35648687152342E-16   3.85282188224644E-15   0.00000000000000E+00   0.00000000000000E+00
      0.00000000000000E+00   0.00000000000000E+00  -1.03630087460825E-18  -4.97343603847349E-17  -5.07706612593431E-17
     -1.92992276555503E-15   0.00000000000000E+00   0.00000000000000E+00   0.00000000000000E+00   0.00000000000000E+00
     -2.29525359628754E-17  -3.61925489930123E-16  -3.84878025892998E-16  -1.92289911669140E-15
      8.00000000000000E-01
      6.40000000000000E-01   6.40000000000000E-01   0.00000000000000E+00   0.00000000000000E+00   4.72756552033194E-16
      2.79999983137875E-19   4.73036552016332E-16   3.94625469517054E-15   0.00000000000000E+00   0.00000000000000E+00
      0.00000000000000E+00   0.00000000000000E+00  -1.03630841709473E-18  -5.49895319978482E-17  -5.60258404149429E-17
     -2.02261426189473E-15   0.00000000000000E+00   0.00000000000000E+00   0.00000000000000E+00   0.00000000000000E+00
     -2.29525601472172E-17  -3.94058151454172E-16  -4.17010711601389E-16  -1.92364043327580E-15
      9.00000000000000E-01
      7.20000000000000E-01   7.20000000000000E-01   0.00000000000000E+00   0.00000000000000E+00   5.08002727369047E-16
      1.19867851218959E-20   5.08014714154169E-16   4.03681941804790E-15   0.00000000000000E+00   0.00000000000000E+00
      0.00000000000000E+00   0.00000000000000E+00  -1.03631537002605E-18  -6.03952837913431E-17  -6.14315991613692E-17
     -2.11243811499486E-15   0.00000000000000E+00   0.00000000000000E+00   0.00000000000000E+00   0.00000000000000E+00
     -2.29525843462548E-17  -4.23630530646546E-16  -4.46583114992801E-16  -1.92438130305304E-15
      1.00000000000000E+00
      8.00000000000000E-01   8.00000000000000E-01   0.00000000000000E+00   0.00000000000000E+00   5.42256661465258E-16
     -6.78569449613085E-19   5.41578092015645E-16   4.12423191913913E-15   0.00000000000000E+00   0.00000000000000E+00
      0.00000000000000E+00   0.00000000000000E+00  -1.03632150247829E-18  -6.61935361960630E-17  -6.72298576985413E-17
     -2.19911027055841E-15   0.00000000000000E+00   0.00000000000000E+00   0.00000000000000E+00   0.00000000000000E+00
     -2.29526085543836E-17  -4.51395625762720E-16  -4.74348234317104E-16  -1.92512164858072E-15
      0.00000000000000E+00
      8.00000000000000E-01   8.00000000000000E-01   0.00000000000000E+00   0.00000000000000E+00   5.42256661599170E-16
      4.59166892118473E-20   5.42302578288382E-16   4.12423191913915E-15   0.00000000000000E+00   0.00000000000000E+00
      0.00000000000000E+00   0.00000000000000E+00  -1.03632163642436E-18  -6.61972488570515E-17  -6.72335704934759E-17
     -2.19911027055842E-15   0.00000000000000E+00   0.00000000000000E+00   0.00000000000000E+00   0.00000000000000E+00
     -2.29526085543835E-17  -4.52116399240523E-16  -4.75069007794906E-16  -1.92512164858072E-15
      1.00000000000000E-02
      8.00000000000000E-01   8.00000000000000E-01   0.00000000000000E+00   0.00000000000000E+00   6.96932535432369E-16
     -3.06060844311662E-18   6.93871926989253E-16   4.12882594880100E-15   0.00000000000000E+00   0.00000000000000E+00
      0.00000000000000E+00   0.00000000000000E+00  -1.03632163014425E-18  -6.55593919816596E-17  -6.65957136118038E-17
     -2.19908830232947E-15  -5.00000000000000E-01  -5.00000000000000E-01   0.00000000000000E+00   0.00000000000000E+00
     -2.29527595300776E-17  -6.04323453847372E-16  -6.27276213377450E-16  -1.92973764647153E-15
      2.00000000000000E-02
      8.00000000000000E-01   8.00000000000000E-01   0.00000000000000E+00   0.00000000000000E+00   8.25558853466337E-16
     -1.75004884131855E-18   8.23808804625018E-16   4.13332330408498E-15   0.00000000000000E+00   0.00000000000000E+00
      0.00000000000000E+00   0.00000000000000E+00  -1.03632160165455E-18  -6.51143171379621E-17  -6.61506387396166E-17
     -2.19898867717314E-15  -1.00000000000000E+00  -1.00000000000000E+00   0.00000000000000E+00   0.00000000000000E+00
     -2.29529113295437E-17  -7.34705254555856E-16  -7.57658165885400E-16  -1.93433462691183E-15
      3.00000000000000E-02
      8.00000000000000E-01   8.00000000000000E-01   0.00000000000000E+00   0.00000000000000E+00   9.36969698388796E-16
     -2.72876302611206E-18   9.34240935362684E-16   4.13754070987845E-15   0.00000000000000E+00   0.00000000000000E+00
      0.00000000000000E+00   0.00000000000000E+00  -1.03632149594367E-18  -6.48515252717997E-17  -6.58878467677434E-17
     -2.19861922266387E-15  -1.50000000000000E+00  -1.50000000000000E+00   0.00000000000000E+00   0.00000000000000E+00
     -2.29530628018992E-17  -8.45400025793042E-16  -8.68353088594941E-16  -1.93892148721458E-15
      4.00000000000000E-02
      8.00000000000000E-01   8.00000000000000E-01   0.00000000000000E+00   0.00000000000000E+00   1.03065153382043E-15
      1.00519482226431E-18   1.03165672864270E-15   4.14103647862311E-15   0.00000000000000E+00   0.00000000000000E+00
      0.00000000000000E+00   0.00000000000000E+00  -1.03632117556302E-18  -6.48687507747905E-17  -6.59050719503535E-17
     -2.19749949051106E-15  -2.00000000000000E+00  -2.00000000000000E+00   0.00000000000000E+00   0.00000000000000E+00
     -2.29532155717977E-17  -9.42798441120545E-16  -9.65751656692343E-16  -1.94353698811205E-15
      5.00000000000000E-02
      8.00000000000000E-01   8.00000000000000E-01   0.00000000000000E+00   0.00000000000000E+00   1.10736449621099E-15
      1.63017568431482E-18   1.10899467189531E-15   4.14295081706387E-15   0.00000000000000E+00   0.00000000000000E+00
      0.00000000000000E+00   0.00000000000000E+00  -1.03632038262452E-18  -6.53550030829284E-17  -6.63913234655529E-17
     -2.19471788182149E-15  -2.50000000000000E+00  -2.50000000000000E+00   0.00000000000000E+00   0.00000000000000E+00
     -2.29533713126081E-17  -1.01964997711715E-15  -1.04260334842976E-15  -1.94823293524236E-15
      6.00000000000000E-02
      8.00000000000000E-01   8.00000000000000E-01   0.00000000000000E+00   0.00000000000000E+00   1.17106069823404E-15
      3.86211888412544E-18   1.17492281711816E-15   4.14216423958831E-15   0.00000000000000E+00   0.00000000000000E+00
      0.00000000000000E+00   0.00000000000000E+00  -1.03631880719197E-18  -6.66302362908980E-17  -6.76665550980899E-17
     -2.18911302429285E-15  -3.00000000000000E+00  -3.00000000000000E+00   0.00000000000000E+00   0.00000000000000E+00
     -2.29535313954472E-17  -1.08430273062463E-15  -1.10725626202007E-15  -1.95305121529545E-15
      7.00000000000000E-02
      8.00000000000000E-01   8.00000000000000E-01   0.00000000000000E+00   0.00000000000000E+00   1.22304949644314E-15
     -4.57870164430575E-18   1.21847079479884E-15   4.13813540967239E-15   0.00000000000000E+00   0.00000000000000E+00
      0.00000000000000E+00   0.00000000000000E+00  -1.03631635152742E-18  -6.91274302036065E-17  -7.01637465551339E-17
     -2.18010660753990E-15  -3.50000000000000E+00  -3.50000000000000E+00   0.00000000000000E+00   0.00000000000000E+00
     -2.29536970447448E-17  -1.12535335119896E-15  -1.14830704824370E-15  -1.95802880213249E-15
      8.00000000000000E-02
      8.00000000000000E-01   8.00000000000000E-01   0.00000000000000E+00   0.00000000000000E+00   1.26361587718721E-15
     -1.51597754615832E-18   1.26209989964106E-15   4.13144226856576E-15   0.00000000000000E+00   0.00000000000000E+00
      0.00000000000000E+00   0.00000000000000E+00  -1.03631324877175E-18  -7.29967915438391E-17  -7.40331047926108E-17
     -2.16824099921396E-15  -4.00000000000000E+00  -4.00000000000000E+00   0.00000000000000E+00   0.00000000000000E+00
     -2.29538694502253E-17  -1.16511292539822E-15  -1.18806679484844E-15  -1.96320126935179E-15
      9.00000000000000E-02
      8.00000000000000E-01   8.00000000000000E-01   0.00000000000000E+00   0.00000000000000E+00   1.29388129889035E-15
      1.68685842042202E-18   1.29556815731077E-15   4.12299511973864E-15   0.00000000000000E+00   0.00000000000000E+00
      0.00000000000000E+00   0.00000000000000E+00  -1.03630978101933E-18  -7.74086897268451E-17  -7.84449995078644E-17
     -2.15440088853015E-15  -4.50000000000000E+00  -4.50000000000000E+00   0.00000000000000E+00   0.00000000000000E+00
     -2.29540494786788E-17  -1.19416910832423E-15  -1.21712315780291E-15  -1.96859423120848E-15
      1.00000000000000E-01
      8.00000000000000E-01   8.00000000000000E-01   0.00000000000000E+00   0.00000000000000E+00   1.31453335931969E-15
     -6.10867162083047E-18   1.30842468769886E-15   4.11337847851081E-15   0.00000000000000E+00   0.00000000000000E+00
      0.00000000000000E+00   0.00000000000000E+00  -1.03630610601782E-18  -8.06157609382634E-17  -8.16520670442812E-17
     -2.13915871931816E-15  -5.00000000000000E+00  -5.00000000000000E+00   0.00000000000000E+00   0.00000000000000E+00
     -2.29542375506246E-17  -1.20381838310396E-15  -1.22677262065458E-15  -1.97421975919265E-15
      1.10000000000000E-01
      8.00000000000000E-01   8.00000000000000E-01   0.00000000000000E+00   0.00000000000000E+00   1.32779687332591E-15
      3.36165954965590E-18   1.33115853287557E-15   4.10287389146860E-15   0.00000000000000E+00   0.00000000000000E+00
      0.00000000000000E+00   0.00000000000000E+00  -1.03630229303328E-18  -8.20170321013116E-17  -8.30533343943449E-17
     -2.12279241073460E-15  -5.50000000000000E+00  -5.50000000000000E+00   0.00000000000000E+00   0.00000000000000E+00
     -2.29544338073940E-17  -1.22515076467383E-15  -1.24810519848122E-15  -1.98008148073399E-15
      1.20000000000000E-01
      8.00000000000000E-01   8.00000000000000E-01   0.00000000000000E+00   0.00000000000000E+00   1.33670130162023E-15
      1.59050677391224E-18   1.33829180839414E-15   4.09159425570281E-15   0.00000000000000E+00   0.00000000000000E+00
      0.00000000000000E+00   0.00000000000000E+00  -1.03629837185822E-18  -8.22440579619017E-17  -8.32803563337599E-17
     -2.10541542115429E-15  -6.00000000000000E+00  -6.00000000000000E+00   0.00000000000000E+00   0.00000000000000E+00
     -2.29546382516767E-17  -1.23205681380870E-15  -1.25501145206038E-15  -1.98617883454851E-15
      1.30000000000000E-01
      8.00000000000000E-01   8.00000000000000E-01   0.00000000000000E+00   0.00000000000000E+00   1.34327248184254E-15
     -6.78523178484940E-19   1.34259395866406E-15   4.07954970562790E-15   0.00000000000000E+00   0.00000000000000E+00
      0.00000000000000E+00   0.00000000000000E+00  -1.03629435462276E-18  -8.18769241547251E-17  -8.29132185093478E-17
     -2.08704080810378E-15  -6.50000000000000E+00  -6.50000000000000E+00   0.00000000000000E+00   0.00000000000000E+00
     -2.29548508078020E-17  -1.23672588934691E-15  -1.25968074015471E-15  -1.99250889752412E-15
      1.40000000000000E-01
      8.00000000000000E-01   8.00000000000000E-01   0.00000000000000E+00   0.00000000000000E+00   1.34854956283828E-15
      1.61115936226004E-17   1.36466115646088E-15   4.06666442808636E-15   0.00000000000000E+00   0.00000000000000E+00
      0.00000000000000E+00   0.00000000000000E+00  -1.03629024343989E-18  -8.12133438624781E-17  -8.22496341059180E-17
     -2.06759753718053E-15  -7.00000000000000E+00  -7.00000000000000E+00   0.00000000000000E+00   0.00000000000000E+00
     -2.29550713381389E-17  -1.25945645101682E-15  -1.28241152235496E-15  -1.99906689090583E-15
      1.50000000000000E-01
      8.00000000000000E-01   8.00000000000000E-01   0.00000000000000E+00   0.00000000000000E+00   1.35305457254758E-15
     -1.80441699891886E-17   1.33501040255839E-15   4.05278037690448E-15   0.00000000000000E+00   0.00000000000000E+00
      0.00000000000000E+00   0.00000000000000E+00  -1.03628603352934E-18  -8.03925178025603E-17  -8.14288038360897E-17
     -2.04693403970747E-15  -7.50000000000000E+00  -7.50000000000000E+00   0.00000000000000E+00   0.00000000000000E+00
     -2.29552996478749E-17  -1.23062629907443E-15  -1.25358159872231E-15  -2.00584633719701E-15
      1.60000000000000E-01
      8.00000000000000E-01   8.00000000000000E-01   0.00000000000000E+00   0.00000000000000E+00   1.35706702335539E-15
      3.66396732254376E-21   1.35707068732271E-15   4.03772180627261E-15   0.00000000000000E+00   0.00000000000000E+00
      0.00000000000000E+00   0.00000000000000E+00  -1.03628171961139E-18  -7.94747749663472E-17  -8.05110566859586E-17
     -2.02488121882520E-15  -8.00000000000000E+00  -8.00000000000000E+00   0.00000000000000E+00   0.00000000000000E+00
     -2.29555355361005E-17  -1.25360409510065E-15  -1.27655963063675E-15  -2.01284058744740E-15
      1.70000000000000E-01
      8.00000000000000E-01   8.00000000000000E-01   0.00000000000000E+00   0.00000000000000E+00   1.36069542971476E-15
      6.30709129120266E-18   1.36700252100596E-15   4.02152427576835E-15   0.00000000000000E+00   0.00000000000000E+00
      0.00000000000000E+00   0.00000000000000E+00  -1.03627731259862E-18  -7.84872320338506E-17  -7.95235093464493E-17
     -2.00147620718573E-15  -8.50000000000000E+00  -8.50000000000000E+00   0.00000000000000E+00   0.00000000000000E+00
     -2.29557789730639E-17  -1.26452323268645E-15  -1.28747901165951E-15  -2.02004806858263E-15
      1.80000000000000E-01
      8.00000000000000E-01   8.00000000000000E-01   0.00000000000000E+00   0.00000000000000E+00   1.36394273026817E-15
     -5.93597148022815E-18   1.35800675878794E-15   4.00459808160024E-15   0.00000000000000E+00   0.00000000000000E+00
      0.00000000000000E+00   0.00000000000000E+00  -1.03627284863419E-18  -7.73336964588107E-17  -7.83699693074449E-17
     -1.97712204609819E-15  -9.00000000000000E+00  -9.00000000000000E+00   0.00000000000000E+00   0.00000000000000E+00
     -2.29560302284071E-17  -1.25668075925209E-15  -1.27963678948050E-15  -2.02747603550206E-15
      1.90000000000000E-01
      8.00000000000000E-01   8.00000000000000E-01   0.00000000000000E+00   0.00000000000000E+00   1.36676380959664E-15
      7.40896435441851E-18   1.37417277395106E-15   3.98743145540842E-15   0.00000000000000E+00   0.00000000000000E+00
      0.00000000000000E+00   0.00000000000000E+00  -1.03626836558168E-18  -7.56635692088928E-17  -7.66998375744745E-17
     -1.95229757905557E-15  -9.50000000000000E+00  -9.50000000000000E+00   0.00000000000000E+00   0.00000000000000E+00
     -2.29562896464077E-17  -1.27451664673017E-15  -1.29747293637658E-15  -2.03513387635283E-15
      2.00000000000000E-01
      8.00000000000000E-01   8.00000000000000E-01   0.00000000000000E+00   0.00000000000000E+00   1.36911234501184E-15
     -6.12128885863033E-18   1.36299105615321E-15   3.97030772306485E-15   0.00000000000000E+00   0.00000000000000E+00
      0.00000000000000E+00   0.00000000000000E+00  -1.03626388422384E-18  -7.21945301836687E-17  -7.32307940678926E-17
     -1.92728109111417E-15  -1.00000000000000E+01  -1.00000000000000E+01   0.00000000000000E+00   0.00000000000000E+00
     -2.29565574265267E-17  -1.26680370465879E-15  -1.28976026208531E-15  -2.04302663195068E-15
      2.10000000000000E-01
      8.00000000000000E-01   8.00000000000000E-01   0.00000000000000E+00   0.00000000000000E+00   1.37093281708847E-15
      9.84906224826509E-18   1.38078187933673E-15   3.95334131875895E-15   0.00000000000000E+00   0.00000000000000E+00
      0.00000000000000E+00   0.00000000000000E+00  -1.03625940166816E-18  -6.22203089367304E-17  -6.32565683383985E-17
     -1.90218563921215E-15  -1.05000000000000E+01  -1.05000000000000E+01   0.00000000000000E+00   0.00000000000000E+00
     -2.29568336455752E-17  -1.29456847735276E-15  -1.31752531099833E-15  -2.05115567954680E-15
      2.20000000000000E-01
      8.00000000000000E-01   8.00000000000000E-01   0.00000000000000E+00   0.00000000000000E+00   1.37216942830769E-15
     -1.27953117363545E-17   1.35937411657134E-15   3.93657271802780E-15   0.00000000000000E+00   0.00000000000000E+00
      0.00000000000000E+00   0.00000000000000E+00  -1.03625494860260E-18  -2.89035694886524E-17  -2.99398244372550E-17
     -1.87705192564375E-15  -1.10000000000000E+01  -1.10000000000000E+01   0.00000000000000E+00   0.00000000000000E+00
     -2.29571183269245E-17  -1.30647717380716E-15  -1.32943429213408E-15  -2.05952079238404E-15
      2.30000000000000E-01
      8.00000000000000E-01   8.00000000000000E-01   0.00000000000000E+00   0.00000000000000E+00   1.37284606703126E-15
      3.64348543700739E-18   1.37648955246827E-15   3.92001600210173E-15   0.00000000000000E+00   0.00000000000000E+00
      0.00000000000000E+00   0.00000000000000E+00  -1.03625050151603E-18   8.63311702454154E-17   8.52949197438994E-17
     -1.85189483017100E-15  -1.15000000000000E+01  -1.15000000000000E+01   0.00000000000000E+00   0.00000000000000E+00
     -2.29574114753068E-17  -1.43882706073686E-15  -1.46178447221216E-15  -2.06812117193072E-15
      2.40000000000000E-01
      8.00000000000000E-01   8.00000000000000E-01   0.00000000000000E+00   0.00000000000000E+00   1.37309473964161E-15
      1.04906800843153E-17   1.38358541972592E-15   3.90367635238518E-15   0.00000000000000E+00   0.00000000000000E+00
      0.00000000000000E+00   0.00000000000000E+00  -1.03624606666959E-18   4.80705250389984E-16   4.79669004323314E-16
     -1.82672053153191E-15  -1.20000000000000E+01  -1.20000000000000E+01   0.00000000000000E+00   0.00000000000000E+00
     -2.29577130893885E-17  -1.84029671095985E-15  -1.86325442404924E-15  -2.07695582085326E-15
      2.50000000000000E-01
      8.00000000000000E-01   8.00000000000000E-01   0.00000000000000E+00   0.00000000000000E+00   1.37307115101871E-15
      8.50377596065180E-20   1.37315618877831E-15   3.88755610941545E-15   0.00000000000000E+00   0.00000000000000E+00
      0.00000000000000E+00   0.00000000000000E+00  -1.03624163054063E-18   1.79526714637882E-15   1.79423090474828E-15
     -1.80153244366342E-15  -1.25000000000000E+01  -1.25000000000000E+01   0.00000000000000E+00   0.00000000000000E+00
     -2.29580231659203E-17  -3.14442907036067E-15  -3.16738709352659E-15  -2.08602366575202E-15
      2.60000000000000E-01
      8.00000000000000E-01   8.00000000000000E-01   0.00000000000000E+00   0.00000000000000E+00   1.37288181421048E-15
     -4.15515580485846E-17   1.33133025616189E-15   3.87165698906702E-15   0.00000000000000E+00   0.00000000000000E+00
      0.00000000000000E+00   0.00000000000000E+00  -1.03623723161779E-18   6.03907123043269E-15   6.03803499320107E-15
     -1.77633339230066E-15  -1.30000000000000E+01  -1.30000000000000E+01   0.00000000000000E+00   0.00000000000000E+00
     -2.29583417010664E-17  -7.34640690766188E-15  -7.36936524936295E-15  -2.09532359676636E-15
      2.70000000000000E-01
      8.00000000000000E-01   8.00000000000000E-01   0.00000000000000E+00   0.00000000000000E+00   1.37257491969799E-15
      1.60933334450914E-17   1.38866825314308E-15   3.85598105959475E-15   0.00000000000000E+00   0.00000000000000E+00
      0.00000000000000E+00   0.00000000000000E+00  -1.03623281518198E-18   1.92788153476274E-14   1.92777791148122E-14
     -1.75112657797970E-15  -1.35000000000000E+01  -1.35000000000000E+01   0.00000000000000E+00   0.00000000000000E+00
     -2.29586686908725E-17  -2.06434886992644E-14  -2.06664473679553E-14  -2.10485448161505E-15
      2.80000000000000E-01
      8.00000000000000E-01   8.00000000000000E-01   0.00000000000000E+00   0.00000000000000E+00   1.37215110638074E-15
      1.42155143097272E-17   1.38636662069047E-15   3.84053136457886E-15   0.00000000000000E+00   0.00000000000000E+00
      0.00000000000000E+00   0.00000000000000E+00  -1.03622845333519E-18   5.91549360393502E-14   5.91538998108969E-14
     -1.72591618989954E-15  -1.40000000000000E+01  -1.40000000000000E+01   0.00000000000000E+00   0.00000000000000E+00
     -2.29590041315551E-17  -6.05173074274558E-14  -6.05402664315874E-14  -2.11461517467933E-15
      2.90000000000000E-01
      8.00000000000000E-01   8.00000000000000E-01   0.00000000000000E+00   0.00000000000000E+00   1.37155991882087E-15
     -4.00683453043018E-18   1.36755308429044E-15   3.82531252446861E-15   0.00000000000000E+00   0.00000000000000E+00
      0.00000000000000E+00   0.00000000000000E+00  -1.03622407688703E-18   1.75021976330826E-13   1.75020940106749E-13
     -1.70070799255284E-15  -1.45000000000000E+01  -1.45000000000000E+01   0.00000000000000E+00   0.00000000000000E+00
     -2.29593480200231E-17  -1.76365533843019E-13  -1.76388493191039E-13  -2.12460453191575E-15
      3.00000000000000E-01
      8.00000000000000E-01   8.00000000000000E-01   0.00000000000000E+00   0.00000000000000E+00   1.37066643652342E-15
      5.61935862566045E-18   1.37628579514908E-15   3.81033148868408E-15   0.00000000000000E+00   0.00000000000000E+00
      0.00000000000000E+00   0.00000000000000E+00  -1.03621881528588E-18   4.99619848881303E-13   4.99618812662488E-13
     -1.67551004424423E-15  -1.50000000000000E+01  -1.50000000000000E+01   0.00000000000000E+00   0.00000000000000E+00
     -2.29597003550271E-17  -5.00972138757279E-13  -5.00995098457634E-13  -2.13482144443985E-15
      3.10000000000000E-01
      8.00000000000000E-01   8.00000000000000E-01   0.00000000000000E+00   0.00000000000000E+00   1.36916551883654E-15
     -1.08575023107518E-17   1.35830801652578E-15   3.79559859656276E-15   0.00000000000000E+00   0.00000000000000E+00
      0.00000000000000E+00   0.00000000000000E+00  -1.03621417459861E-18   1.37574670831944E-12   1.37574567210527E-12
     -1.65033368073483E-15  -1.55000000000000E+01  -1.55000000000000E+01   0.00000000000000E+00   0.00000000000000E+00
     -2.29600611398618E-17  -1.37708102006065E-12  -1.37710398012179E-12  -2.14526491582793E-15
      3.20000000000000E-01
      8.00000000000000E-01   8.00000000000000E-01   0.00000000000000E+00   0.00000000000000E+00   1.36639116258634E-15
     -4.70276845249413E-18   1.36168839413384E-15   3.78112917360252E-15   0.00000000000000E+00   0.00000000000000E+00
      0.00000000000000E+00   0.00000000000000E+00  -1.03620876068065E-18   3.65221162815743E-12   3.65221059194867E-12
     -1.62519493792766E-15  -1.60000000000000E+01  -1.60000000000000E+01   0.00000000000000E+00   0.00000000000000E+00
     -2.29604303884395E-17  -3.65354931991242E-12  -3.65357228034281E-12  -2.15593423567488E-15
      3.30000000000000E-01
      8.00000000000000E-01   8.00000000000000E-01   0.00000000000000E+00   0.00000000000000E+00   1.36092880724352E-15
      1.16905728742563E-17   1.37261938011777E-15   3.76694603342917E-15   0.00000000000000E+00   0.00000000000000E+00
      0.00000000000000E+00   0.00000000000000E+00  -1.03619936199159E-18   9.34033642228680E-12   9.34033538608743E-12
     -1.60011667856546E-15  -1.65000000000000E+01  -1.65000000000000E+01   0.00000000000000E+00   0.00000000000000E+00
     -2.29608081385127E-17  -9.34168504465936E-12  -9.34170800546750E-12  -2.16682935486370E-15
      3.40000000000000E-01
      8.00000000000000E-01   8.00000000000000E-01   0.00000000000000E+00   0.00000000000000E+00   1.34992495973046E-15
      1.61553706045730E-17   1.36608033033503E-15   3.75308347582046E-15   0.00000000000000E+00   0.00000000000000E+00
      0.00000000000000E+00   0.00000000000000E+00  -1.03618047956414E-18   2.29888201540594E-11   2.29888191178790E-11
     -1.57513181761254E-15  -1.70000000000000E+01  -1.70000000000000E+01   0.00000000000000E+00   0.00000000000000E+00
     -2.29611944789344E-17  -2.29901622370146E-11  -2.29901851982091E-11  -2.17795165820793E-15
      3.50000000000000E-01
      8.00000000000000E-01   8.00000000000000E-01   0.00000000000000E+00   0.00000000000000E+00   1.32814150072680E-15
      3.26139513905715E-17   1.36075545211737E-15   3.73959361501685E-15   0.00000000000000E+00   0.00000000000000E+00
      0.00000000000000E+00   0.00000000000000E+00  -1.03613905804032E-18   5.43773618543147E-11   5.43773608181756E-11
     -1.55028815501275E-15  -1.75000000000000E+01  -1.75000000000000E+01   0.00000000000000E+00   0.00000000000000E+00
     -2.29615896026423E-17  -5.43786986120385E-11  -5.43787215736281E-11  -2.18930546000410E-15
      3.60000000000000E-01
      8.00000000000000E-01   8.00000000000000E-01   0.00000000000000E+00   0.00000000000000E+00   1.28747811154658E-15
     -2.36213007252977E-17   1.26385681082128E-15   3.72655592752866E-15   0.00000000000000E+00   0.00000000000000E+00