DF-ISE text

Info {
  version   = 1.0
  type      = xyplot
  datasets  = [
    "time"
    "Ntop OuterVoltage" "Ntop InnerVoltage" "Ntop QuasiFermiPotential" "Ntop DisplacementCurrent" "Ntop eCurrent"
    "Ntop hCurrent" "Ntop TotalCurrent" "Ntop Charge" "Ptop OuterVoltage" "Ptop InnerVoltage"
    "Ptop QuasiFermiPotential" "Ptop DisplacementCurrent" "Ptop eCurrent" "Ptop hCurrent" "Ptop TotalCurrent"
    "Ptop Charge" "Pbot OuterVoltage" "Pbot InnerVoltage" "Pbot QuasiFermiPotential" "Pbot DisplacementCurrent"
    "Pbot eCurrent" "Pbot hCurrent" "Pbot TotalCurrent" "Pbot Charge" ]
  functions = [
    Time
    OuterVoltage InnerVoltage QuasiFermiPotential DisplacementCurrent eCurrent
    hCurrent TotalCurrent Charge OuterVoltage InnerVoltage
    QuasiFermiPotential DisplacementCurrent eCurrent hCurrent TotalCurrent
    Charge OuterVoltage InnerVoltage QuasiFermiPotential DisplacementCurrent
    eCurrent hCurrent TotalCurrent Charge ]
}

Data {
      0.00000000000000E+00
      0.00000000000000E+00   0.00000000000000E+00   0.00000000000000E+00   0.00000000000000E+00  -5.75698853375325E-27
     -4.44804876196546E-18  -4.44804876772245E-18   3.14138192229157E-15   0.00000000000000E+00   0.00000000000000E+00
      0.00000000000000E+00   0.00000000000000E+00   5.78453435634934E-27   6.97473662540517E-20   6.97473720385861E-20
     -1.22367874127169E-15   0.00000000000000E+00   0.00000000000000E+00   0.00000000000000E+00   0.00000000000000E+00
     -2.75614457336223E-29   4.37830139571142E-18   4.37830139568386E-18  -1.91770318101987E-15
      0.00000000000000E+00
      0.00000000000000E+00   0.00000000000000E+00   0.00000000000000E+00   0.00000000000000E+00   1.64919139163959E-26
     -5.74869765953157E-19  -5.74869749461243E-19   3.14138192239495E-15   0.00000000000000E+00   0.00000000000000E+00
      0.00000000000000E+00   0.00000000000000E+00  -1.64961094959037E-26   4.71935597550615E-21   4.71933947939665E-21
     -1.22367874127171E-15   0.00000000000000E+00   0.00000000000000E+00   0.00000000000000E+00   0.00000000000000E+00
      4.71128462508215E-30   5.70150409977135E-19   5.70150409981846E-19  -1.91770318112325E-15
      1.00000000000000E-01
      8.00000000000000E-02   8.00000000000000E-02   0.00000000000000E+00   0.00000000000000E+00   1.49076283090101E-16
      3.51831458602060E-19   1.49428114548703E-16   3.24794053166216E-15   0.00000000000000E+00   0.00000000000000E+00
      0.00000000000000E+00   0.00000000000000E+00  -9.93419869927483E-19  -1.30715705293928E-17  -1.40649903993203E-17
     -1.32949455317013E-15   0.00000000000000E+00   0.00000000000000E+00   0.00000000000000E+00   0.00000000000000E+00
     -2.28396109797454E-17  -1.12523513169638E-16  -1.35363124149383E-16  -1.91844597849203E-15
      2.00000000000000E-01
      1.60000000000000E-01   1.60000000000000E-01   0.00000000000000E+00   0.00000000000000E+00   2.14035321458349E-16
      9.23052479128239E-19   2.14958373937477E-16   3.35222457391633E-15   0.00000000000000E+00   0.00000000000000E+00
      0.00000000000000E+00   0.00000000000000E+00  -1.03467216081732E-18  -2.03034026974824E-17  -2.13380748582997E-17
     -1.43303610763727E-15   0.00000000000000E+00   0.00000000000000E+00   0.00000000000000E+00   0.00000000000000E+00
     -2.29524633390134E-17  -1.70667835740164E-16  -1.93620299079177E-16  -1.91918846627906E-15
      3.00000000000000E-01
      2.40000000000000E-01   2.40000000000000E-01   0.00000000000000E+00   0.00000000000000E+00   2.66772421411793E-16
      5.89868016833167E-19   2.67362289428626E-16   3.45447692568531E-15   0.00000000000000E+00   0.00000000000000E+00
      0.00000000000000E+00   0.00000000000000E+00  -1.03622012869399E-18  -2.65883871460516E-17  -2.76246072747456E-17
     -1.53454605261347E-15   0.00000000000000E+00   0.00000000000000E+00   0.00000000000000E+00   0.00000000000000E+00
     -2.29524423937185E-17  -2.16785239760162E-16  -2.39737682153881E-16  -1.91993087307184E-15
      4.00000000000000E-01
      3.20000000000000E-01   3.20000000000000E-01   0.00000000000000E+00   0.00000000000000E+00   3.13573703386105E-16
      1.23896326572189E-18   3.14812666651827E-16   3.55474915948547E-15   0.00000000000000E+00   0.00000000000000E+00
      0.00000000000000E+00   0.00000000000000E+00  -1.03627494116459E-18  -3.24501655094146E-17  -3.34864404505792E-17
     -1.63407594425903E-15   0.00000000000000E+00   0.00000000000000E+00   0.00000000000000E+00   0.00000000000000E+00
     -2.29524636556060E-17  -2.58373762545642E-16  -2.81326226201248E-16  -1.92067321522643E-15
      5.00000000000000E-01
      4.00000000000000E-01   4.00000000000000E-01   0.00000000000000E+00   0.00000000000000E+00   3.56529696003266E-16
     -5.25784512300219E-19   3.56003911490966E-16   3.65301137666627E-15   0.00000000000000E+00   0.00000000000000E+00
      0.00000000000000E+00   0.00000000000000E+00  -1.03628462160003E-18  -3.80125398664523E-17  -3.90488244880524E-17
     -1.73159594885159E-15   0.00000000000000E+00   0.00000000000000E+00   0.00000000000000E+00   0.00000000000000E+00
     -2.29524876671117E-17  -2.94002599335801E-16  -3.16955087002913E-16  -1.92141542781467E-15
      6.00000000000000E-01
      4.80000000000000E-01   4.80000000000000E-01   0.00000000000000E+00   0.00000000000000E+00   3.96751331785767E-16
      2.30687383796874E-19   3.96982019169563E-16   3.74919862507699E-15   0.00000000000000E+00   0.00000000000000E+00
      0.00000000000000E+00   0.00000000000000E+00  -1.03629314020162E-18  -4.33079464527958E-17  -4.43442395929974E-17
     -1.82704120116150E-15   0.00000000000000E+00   0.00000000000000E+00   0.00000000000000E+00   0.00000000000000E+00
     -2.29525117994509E-17  -3.29685267777115E-16  -3.52637779576566E-16  -1.92215742391548E-15
      7.00000000000000E-01
      5.60000000000000E-01   5.60000000000000E-01   0.00000000000000E+00   0.00000000000000E+00   4.34869370475549E-16
      4.46936630097874E-20   4.34914064138559E-16   3.84321436038151E-15   0.00000000000000E+00   0.00000000000000E+00
      0.00000000000000E+00   0.00000000000000E+00  -1.03630110753592E-18  -4.83973169181244E-17  -4.94336180256603E-17
     -1.92031524132581E-15   0.00000000000000E+00   0.00000000000000E+00   0.00000000000000E+00   0.00000000000000E+00
     -2.29525359629525E-17  -3.62527910149946E-16  -3.85480446112898E-16  -1.92289911905570E-15
      8.00000000000000E-01
      6.40000000000000E-01   6.40000000000000E-01   0.00000000000000E+00   0.00000000000000E+00   4.71254979640665E-16
     -1.92876661305865E-19   4.71062102979359E-16   3.93491407596251E-15   0.00000000000000E+00   0.00000000000000E+00
      0.00000000000000E+00   0.00000000000000E+00  -1.03630869590794E-18  -5.34238786387759E-17  -5.44601873346839E-17
     -2.01127363736037E-15   0.00000000000000E+00   0.00000000000000E+00   0.00000000000000E+00   0.00000000000000E+00
     -2.29525601473909E-17  -3.93649355497284E-16  -4.16601915644675E-16  -1.92364043860214E-15
      9.00000000000000E-01
      7.20000000000000E-01   7.20000000000000E-01   0.00000000000000E+00   0.00000000000000E+00   5.06217655926030E-16
      4.09550322661779E-19   5.06627206248692E-16   4.02409336483563E-15   0.00000000000000E+00   0.00000000000000E+00
      0.00000000000000E+00   0.00000000000000E+00  -1.03631575143358E-18  -5.85344165107466E-17  -5.95707322621802E-17
     -2.09971204948689E-15   0.00000000000000E+00   0.00000000000000E+00   0.00000000000000E+00   0.00000000000000E+00
     -2.29525843466568E-17  -4.24103889639855E-16  -4.47056473986512E-16  -1.92438131534875E-15
      1.00000000000000E+00
      8.00000000000000E-01   8.00000000000000E-01   0.00000000000000E+00   0.00000000000000E+00   5.40083471692380E-16
      5.83865463024791E-19   5.40667337155404E-16   4.11051815151543E-15   0.00000000000000E+00   0.00000000000000E+00
      0.00000000000000E+00   0.00000000000000E+00  -1.03632202771585E-18  -6.39487980855534E-17  -6.49851201132693E-17
     -2.18539647362828E-15   0.00000000000000E+00   0.00000000000000E+00   0.00000000000000E+00   0.00000000000000E+00
     -2.29526085553424E-17  -4.52729608486792E-16  -4.75682217042135E-16  -1.92512167788713E-15
      0.00000000000000E+00
      8.00000000000000E-01   8.00000000000000E-01   0.00000000000000E+00   0.00000000000000E+00   5.40083471807093E-16
      9.71980540905200E-20   5.40180669861183E-16   4.11051815151543E-15   0.00000000000000E+00   0.00000000000000E+00
      0.00000000000000E+00   0.00000000000000E+00  -1.03632214244087E-18  -6.39462408693376E-17  -6.49825630117784E-17
     -2.18539647362829E-15   0.00000000000000E+00   0.00000000000000E+00   0.00000000000000E+00   0.00000000000000E+00
     -2.29526085553423E-17  -4.52245498294062E-16  -4.75198106849404E-16  -1.92512167788713E-15
      1.00000000000000E-02
      8.00000000000000E-01   8.00000000000000E-01   0.00000000000000E+00   0.00000000000000E+00   6.94740297903031E-16
     -1.66602572545696E-18   6.93074272177574E-16   4.11511548760427E-15   0.00000000000000E+00   0.00000000000000E+00
      0.00000000000000E+00   0.00000000000000E+00  -1.03632213665715E-18  -6.33309985423831E-17  -6.43673206790402E-17
     -2.18537765612479E-15  -5.00000000000000E-01  -5.00000000000000E-01   0.00000000000000E+00   0.00000000000000E+00
     -2.29527595361605E-17  -6.05754191962374E-16  -6.28706951498534E-16  -1.92973783147948E-15
      2.00000000000000E-02
      8.00000000000000E-01   8.00000000000000E-01   0.00000000000000E+00   0.00000000000000E+00   8.23283121004742E-16
     -1.46651533011883E-19   8.23136469471730E-16   4.11962795549680E-15   0.00000000000000E+00   0.00000000000000E+00
      0.00000000000000E+00   0.00000000000000E+00  -1.03632211046146E-18  -6.28928684584365E-17  -6.39291905688979E-17
     -2.18529244903086E-15  -1.00000000000000E+00  -1.00000000000000E+00   0.00000000000000E+00   0.00000000000000E+00
     -2.29529113585516E-17  -7.36254367544281E-16  -7.59207278902832E-16  -1.93433550646595E-15
      3.00000000000000E-02
      8.00000000000000E-01   8.00000000000000E-01   0.00000000000000E+00   0.00000000000000E+00   9.34412990010711E-16
      7.00357661665507E-19   9.35113347672377E-16   4.12390265089769E-15   0.00000000000000E+00   0.00000000000000E+00
      0.00000000000000E+00   0.00000000000000E+00  -1.03632201370385E-18  -6.26365324266254E-17  -6.36728544403293E-17
     -2.18497784079069E-15  -1.50000000000000E+00  -1.50000000000000E+00   0.00000000000000E+00   0.00000000000000E+00
     -2.29530629117657E-17  -8.48487430320282E-16  -8.71440493232047E-16  -1.93892481010699E-15
      4.00000000000000E-02
      8.00000000000000E-01   8.00000000000000E-01   0.00000000000000E+00   0.00000000000000E+00   1.02740696104219E-15
     -2.11723432529157E-19   1.02719523760966E-15   4.12758002468086E-15   0.00000000000000E+00   0.00000000000000E+00
      0.00000000000000E+00   0.00000000000000E+00  -1.03632172318619E-18  -6.26234289587250E-17  -6.36597506819112E-17
     -2.18403299149542E-15  -2.00000000000000E+00  -2.00000000000000E+00   0.00000000000000E+00   0.00000000000000E+00
     -2.29532159046257E-17  -9.40582271023123E-16  -9.63535486927748E-16  -1.94354703318541E-15
      5.00000000000000E-02
      8.00000000000000E-01   8.00000000000000E-01   0.00000000000000E+00   0.00000000000000E+00   1.10271684965309E-15
     -2.86601645348054E-18   1.09985083319961E-15   4.12997377960628E-15   0.00000000000000E+00   0.00000000000000E+00
      0.00000000000000E+00   0.00000000000000E+00  -1.03632101321410E-18  -6.29990515382615E-17  -6.40353725514756E-17
     -2.18171594829797E-15  -2.50000000000000E+00  -2.50000000000000E+00   0.00000000000000E+00   0.00000000000000E+00
     -2.29533721390429E-17  -1.01286208850909E-15  -1.03581546064813E-15  -1.94825783130832E-15
      6.00000000000000E-02
      8.00000000000000E-01   8.00000000000000E-01   0.00000000000000E+00   0.00000000000000E+00   1.16426943127060E-15
     -2.29188799356572E-18   1.16197754327703E-15   4.13019083048719E-15   0.00000000000000E+00   0.00000000000000E+00
      0.00000000000000E+00   0.00000000000000E+00  -1.03631961203662E-18  -6.40013980982073E-17  -6.50377177102439E-17
     -2.17708833023759E-15  -3.00000000000000E+00  -3.00000000000000E+00   0.00000000000000E+00   0.00000000000000E+00
     -2.29535331007872E-17  -1.07398629246600E-15  -1.09693982556679E-15  -1.95310250024958E-15
      7.00000000000000E-02
      8.00000000000000E-01   8.00000000000000E-01   0.00000000000000E+00   0.00000000000000E+00   1.21405114691249E-15
      3.89153941145761E-18   1.21794268632394E-15   4.12772728709512E-15   0.00000000000000E+00   0.00000000000000E+00
      0.00000000000000E+00   0.00000000000000E+00  -1.03631740504344E-18  -6.59531699019067E-17  -6.69894873069502E-17
     -2.16960993860719E-15  -3.50000000000000E+00  -3.50000000000000E+00   0.00000000000000E+00   0.00000000000000E+00
     -2.29536999938562E-17  -1.12799949902314E-15  -1.15095319901700E-15  -1.95811734848791E-15
      8.00000000000000E-02
      8.00000000000000E-01   8.00000000000000E-01   0.00000000000000E+00   0.00000000000000E+00   1.25296823185852E-15
      8.56937515008377E-19   1.25382516937353E-15   4.12293038693736E-15   0.00000000000000E+00   0.00000000000000E+00
      0.00000000000000E+00   0.00000000000000E+00  -1.03631455605882E-18  -6.90572116603400E-17  -7.00935262163988E-17
     -2.15959702723180E-15  -4.00000000000000E+00  -4.00000000000000E+00   0.00000000000000E+00   0.00000000000000E+00
     -2.29538738564177E-17  -1.16077776930071E-15  -1.18373164315713E-15  -1.96333335970555E-15
      9.00000000000000E-02
      8.00000000000000E-01   8.00000000000000E-01   0.00000000000000E+00   0.00000000000000E+00   1.28279231528846E-15
      1.03247123196432E-17   1.29311702760810E-15   4.11652710376444E-15   0.00000000000000E+00   0.00000000000000E+00
      0.00000000000000E+00   0.00000000000000E+00  -1.03631131476844E-18  -7.29137438445352E-17  -7.39500551593037E-17
     -2.14775376671055E-15  -4.50000000000000E+00  -4.50000000000000E+00   0.00000000000000E+00   0.00000000000000E+00
     -2.29540554622011E-17  -1.19621291698660E-15  -1.21916697244880E-15  -1.96877333705389E-15
      1.00000000000000E-01
      8.00000000000000E-01   8.00000000000000E-01   0.00000000000000E+00   0.00000000000000E+00   1.30425939152333E-15
      2.41790830024355E-18   1.30667729982357E-15   4.10905889321665E-15   0.00000000000000E+00   0.00000000000000E+00
      0.00000000000000E+00   0.00000000000000E+00  -1.03630784335545E-18  -7.62005801308409E-17  -7.72368879741963E-17
     -2.13460969611095E-15  -5.00000000000000E+00  -5.00000000000000E+00   0.00000000000000E+00   0.00000000000000E+00
     -2.29542452270086E-17  -1.20648616662236E-15  -1.22944041184937E-15  -1.97444919710569E-15
      1.10000000000000E-01
      8.00000000000000E-01   8.00000000000000E-01   0.00000000000000E+00   0.00000000000000E+00   1.31870726123367E-15
      3.00345626261179E-19   1.31900760685993E-15   4.10082607367421E-15   0.00000000000000E+00   0.00000000000000E+00
      0.00000000000000E+00   0.00000000000000E+00  -1.03630422162001E-18  -7.79881425031358E-17  -7.90244467247558E-17
     -2.12046071029481E-15  -5.50000000000000E+00  -5.50000000000000E+00   0.00000000000000E+00   0.00000000000000E+00
     -2.29544433193230E-17  -1.21702871681585E-15  -1.23998316013518E-15  -1.98036536337939E-15
      1.20000000000000E-01
      8.00000000000000E-01   8.00000000000000E-01   0.00000000000000E+00   0.00000000000000E+00   1.32855977909162E-15
      1.37442216553230E-18   1.32993420125715E-15   4.09198872020139E-15   0.00000000000000E+00   0.00000000000000E+00
      0.00000000000000E+00   0.00000000000000E+00  -1.03630048831743E-18  -7.85659811055830E-17  -7.96022815939004E-17
     -2.10546623826176E-15  -6.00000000000000E+00  -6.00000000000000E+00   0.00000000000000E+00   0.00000000000000E+00
     -2.29546497829688E-17  -1.22737726988029E-15  -1.25033191966325E-15  -1.98652248193963E-15
      1.30000000000000E-01
      8.00000000000000E-01   8.00000000000000E-01   0.00000000000000E+00   0.00000000000000E+00   1.33578989536540E-15
     -2.36046300406062E-18   1.33342943236134E-15   4.08263514160805E-15   0.00000000000000E+00   0.00000000000000E+00
      0.00000000000000E+00   0.00000000000000E+00  -1.03629666409759E-18  -7.84680219152340E-17  -7.95043185793315E-17
     -2.08971572686245E-15  -6.50000000000000E+00  -6.50000000000000E+00   0.00000000000000E+00   0.00000000000000E+00
     -2.29548646030860E-17  -1.23097024917893E-15  -1.25392511378201E-15  -1.99291941474559E-15
      1.40000000000000E-01
      8.00000000000000E-01   8.00000000000000E-01   0.00000000000000E+00   0.00000000000000E+00   1.34148673579365E-15
     -1.81539595112896E-17   1.32333277628236E-15   4.07281438977538E-15   0.00000000000000E+00   0.00000000000000E+00
      0.00000000000000E+00   0.00000000000000E+00  -1.03629276117542E-18  -7.80101385079419E-17  -7.90464312691174E-17
     -2.07326024472271E-15  -7.00000000000000E+00  -7.00000000000000E+00   0.00000000000000E+00   0.00000000000000E+00
     -2.29550877361044E-17  -1.22133125727714E-15  -1.24428634501324E-15  -1.99955414505266E-15
      1.50000000000000E-01
      8.00000000000000E-01   8.00000000000000E-01   0.00000000000000E+00   0.00000000000000E+00   1.34618500719184E-15
      2.45378880081306E-18   1.34863879599266E-15   4.06255056568222E-15   0.00000000000000E+00   0.00000000000000E+00
      0.00000000000000E+00   0.00000000000000E+00  -1.03628878731417E-18  -7.73254086334499E-17  -7.83616974207640E-17
     -2.05612638731495E-15  -7.50000000000000E+00  -7.50000000000000E+00   0.00000000000000E+00   0.00000000000000E+00
     -2.29553191229976E-17  -1.24732177944889E-15  -1.27027709857189E-15  -2.00642417836726E-15
      1.60000000000000E-01
      8.00000000000000E-01   8.00000000000000E-01   0.00000000000000E+00   0.00000000000000E+00   1.35015232649647E-15
      6.63384082148420E-18   1.35678616731796E-15   4.05184856309975E-15   0.00000000000000E+00   0.00000000000000E+00
      0.00000000000000E+00   0.00000000000000E+00  -1.03628474754169E-18  -7.64785812444931E-17  -7.75148659920348E-17
     -2.03832185232524E-15  -8.00000000000000E+00  -8.00000000000000E+00   0.00000000000000E+00   0.00000000000000E+00
     -2.29555586948069E-17  -1.25631574263111E-15  -1.27927130132592E-15  -2.01352671077451E-15
      1.70000000000000E-01
      8.00000000000000E-01   8.00000000000000E-01   0.00000000000000E+00   0.00000000000000E+00   1.35354771933668E-15
     -5.62831014309554E-18   1.34791940919359E-15   4.04069530508911E-15   0.00000000000000E+00   0.00000000000000E+00
      0.00000000000000E+00   0.00000000000000E+00  -1.03628064490953E-18  -7.54974792767370E-17  -7.65337599216466E-17
     -2.01983662848164E-15  -8.50000000000000E+00  -8.50000000000000E+00   0.00000000000000E+00   0.00000000000000E+00
     -2.29558063741351E-17  -1.24842984289780E-15  -1.27138564927194E-15  -2.02085867660746E-15
      1.80000000000000E-01
      8.00000000000000E-01   8.00000000000000E-01   0.00000000000000E+00   0.00000000000000E+00   1.35648288946453E-15
     -8.37503317584691E-18   1.34810785628868E-15   4.02905836124449E-15   0.00000000000000E+00   0.00000000000000E+00
      0.00000000000000E+00   0.00000000000000E+00  -1.03627648082220E-18  -7.43840141505230E-17  -7.54202906313452E-17
     -2.00064163205641E-15  -9.00000000000000E+00  -9.00000000000000E+00   0.00000000000000E+00   0.00000000000000E+00
     -2.29560620743983E-17  -1.24973150358294E-15  -1.27268756565733E-15  -2.02841672918807E-15
      1.90000000000000E-01
      8.00000000000000E-01   8.00000000000000E-01   0.00000000000000E+00   0.00000000000000E+00   1.35904408415753E-15
      1.37725313678153E-18   1.36042133729431E-15   4.01688434385006E-15   0.00000000000000E+00   0.00000000000000E+00
      0.00000000000000E+00   0.00000000000000E+00  -1.03627225528461E-18  -7.30353066352732E-17  -7.40715788905578E-17
     -1.98068712060938E-15  -9.50000000000000E+00  -9.50000000000000E+00   0.00000000000000E+00   0.00000000000000E+00
     -2.29563256991135E-17  -1.26339343270464E-15  -1.28634975840375E-15  -2.03619722324067E-15
      2.00000000000000E-01
      8.00000000000000E-01   8.00000000000000E-01   0.00000000000000E+00   0.00000000000000E+00   1.36132979397411E-15
     -2.75213648307809E-18   1.35857765749103E-15   4.00410389019337E-15   0.00000000000000E+00   0.00000000000000E+00
      0.00000000000000E+00   0.00000000000000E+00  -1.03626796763086E-18  -7.11046943987701E-17  -7.21409623664010E-17
     -1.95990751000915E-15  -1.00000000000000E+01  -1.00000000000000E+01   0.00000000000000E+00   0.00000000000000E+00
     -2.29565971474119E-17  -1.26348009797722E-15  -1.28643669512463E-15  -2.04419638018422E-15
      2.10000000000000E-01
      8.00000000000000E-01   8.00000000000000E-01   0.00000000000000E+00   0.00000000000000E+00   1.36342040197564E-15
      8.85077185300394E-18   1.37227117382864E-15   3.99065911747944E-15   0.00000000000000E+00   0.00000000000000E+00
      0.00000000000000E+00   0.00000000000000E+00  -1.03626361876943E-18  -6.72099870736884E-17  -6.82462506924578E-17
     -1.93824808716300E-15  -1.05000000000000E+01  -1.05000000000000E+01   0.00000000000000E+00   0.00000000000000E+00
     -2.29568763392021E-17  -1.28106804679698E-15  -1.30402492313619E-15  -2.05241103031643E-15
      2.20000000000000E-01
      8.00000000000000E-01   8.00000000000000E-01   0.00000000000000E+00   0.00000000000000E+00   1.36535925774735E-15
     -6.98463122128519E-19   1.36466079462522E-15   3.97656676676447E-15   0.00000000000000E+00   0.00000000000000E+00
      0.00000000000000E+00   0.00000000000000E+00  -1.03625921542324E-18  -5.62429787054573E-17  -5.72792379208806E-17
     -1.91572656420944E-15  -1.10000000000000E+01  -1.10000000000000E+01   0.00000000000000E+00   0.00000000000000E+00
     -2.29571632694603E-17  -1.28442439343488E-15  -1.30738155670434E-15  -2.06084020255502E-15
      2.30000000000000E-01
      8.00000000000000E-01   8.00000000000000E-01   0.00000000000000E+00   0.00000000000000E+00   1.36715394752023E-15
     -2.75731775792678E-17   1.33958076994096E-15   3.96197336102872E-15   0.00000000000000E+00   0.00000000000000E+00
      0.00000000000000E+00   0.00000000000000E+00  -1.03625477280825E-18  -1.98027269181111E-17  -2.08389816909194E-17
     -1.89248698975646E-15  -1.15000000000000E+01  -1.15000000000000E+01   0.00000000000000E+00   0.00000000000000E+00
     -2.29574580513353E-17  -1.29578433019870E-15  -1.31874178825004E-15  -2.06948637127226E-15
      2.40000000000000E-01
      8.00000000000000E-01   8.00000000000000E-01   0.00000000000000E+00   0.00000000000000E+00   1.36878660535560E-15
      8.14350649047472E-19   1.36960095600465E-15   3.94711087502637E-15   0.00000000000000E+00   0.00000000000000E+00
      0.00000000000000E+00   0.00000000000000E+00  -1.03625031017001E-18   1.06441155798344E-16   1.05404905488174E-16
     -1.86875673824767E-15  -1.20000000000000E+01  -1.20000000000000E+01   0.00000000000000E+00   0.00000000000000E+00
     -2.29577608719898E-17  -1.45204810062083E-15  -1.47500586149282E-15  -2.07835413677870E-15
      2.50000000000000E-01
      8.00000000000000E-01   8.00000000000000E-01   0.00000000000000E+00   0.00000000000000E+00   1.37023252534119E-15
      6.11492048997530E-18   1.37634744583117E-15   3.93218741265471E-15   0.00000000000000E+00   0.00000000000000E+00
      0.00000000000000E+00   0.00000000000000E+00  -1.03624584312866E-18   5.39622826277167E-16   5.38586580434039E-16
     -1.84473999831328E-15  -1.25000000000000E+01  -1.25000000000000E+01   0.00000000000000E+00   0.00000000000000E+00
     -2.29580718969756E-17  -1.89197595436823E-15  -1.91493402626521E-15  -2.08744741434143E-15
      2.60000000000000E-01
      8.00000000000000E-01   8.00000000000000E-01   0.00000000000000E+00   0.00000000000000E+00   1.37146733163288E-15
      1.72732302554962E-17   1.38874056188838E-15   3.91733569251673E-15   0.00000000000000E+00   0.00000000000000E+00
      0.00000000000000E+00   0.00000000000000E+00  -1.03624138103015E-18   1.98660405423058E-15   1.98556781284955E-15
     -1.82056749611942E-15  -1.30000000000000E+01  -1.30000000000000E+01   0.00000000000000E+00   0.00000000000000E+00
     -2.29583912276449E-17  -3.35134998351027E-15  -3.37430837473792E-15  -2.09676819639731E-15
      2.70000000000000E-01
      8.00000000000000E-01   8.00000000000000E-01   0.00000000000000E+00   0.00000000000000E+00   1.37246524935095E-15
     -4.60764557636635E-20   1.37241917289519E-15   3.90262692062738E-15   0.00000000000000E+00   0.00000000000000E+00
      0.00000000000000E+00   0.00000000000000E+00  -1.03623690009642E-18   6.66627101598637E-15   6.66523477908628E-15
     -1.79630998001468E-15  -1.35000000000000E+01  -1.35000000000000E+01   0.00000000000000E+00   0.00000000000000E+00
     -2.29587189139543E-17  -8.01469523306752E-15  -8.03765395198148E-15  -2.10631694061270E-15
      2.80000000000000E-01
      8.00000000000000E-01   8.00000000000000E-01   0.00000000000000E+00   0.00000000000000E+00   1.37319895658097E-15
      7.40313916039546E-19   1.37393927049701E-15   3.88809777171901E-15   0.00000000000000E+00   0.00000000000000E+00
      0.00000000000000E+00   0.00000000000000E+00  -1.03623246751618E-18   2.12889865440697E-14   2.12879503116022E-14
     -1.77200452594488E-15  -1.40000000000000E+01  -1.40000000000000E+01   0.00000000000000E+00   0.00000000000000E+00
     -2.29590549772974E-17  -2.26389305271219E-14  -2.26618895820992E-14  -2.11609324577412E-15
      2.90000000000000E-01
      8.00000000000000E-01   8.00000000000000E-01   0.00000000000000E+00   0.00000000000000E+00   1.37363768537851E-15
      1.55178106240023E-17   1.38915549600251E-15   3.87376852030144E-15   0.00000000000000E+00   0.00000000000000E+00
      0.00000000000000E+00   0.00000000000000E+00  -1.03622802478032E-18   6.53908322525692E-14   6.53897960245444E-14
     -1.74767222770905E-15  -1.45000000000000E+01  -1.45000000000000E+01   0.00000000000000E+00   0.00000000000000E+00
     -2.29593994254399E-17  -6.67559921211218E-14  -6.67789515205472E-14  -2.12609629259238E-15
      3.00000000000000E-01
      8.00000000000000E-01   8.00000000000000E-01   0.00000000000000E+00   0.00000000000000E+00   1.37372974328413E-15
     -1.98508797410045E-17   1.35387886354312E-15   3.85965264507683E-15   0.00000000000000E+00   0.00000000000000E+00
      0.00000000000000E+00   0.00000000000000E+00  -1.03622357727526E-18   1.93676457601360E-13   1.93675421377783E-13
     -1.72332756817103E-15  -1.50000000000000E+01  -1.50000000000000E+01   0.00000000000000E+00   0.00000000000000E+00
     -2.29597522604570E-17  -1.95006340489066E-13  -1.95029300241326E-13  -2.13632507690579E-15
      3.10000000000000E-01
      8.00000000000000E-01   8.00000000000000E-01   0.00000000000000E+00   0.00000000000000E+00   1.37335386822552E-15
      1.32601415439679E-17   1.38661400976949E-15   3.84576184136888E-15   0.00000000000000E+00   0.00000000000000E+00
      0.00000000000000E+00   0.00000000000000E+00  -1.03621867534399E-18   5.53329763880616E-13   5.53328727661941E-13
     -1.69898329401644E-15  -1.55000000000000E+01  -1.55000000000000E+01   0.00000000000000E+00   0.00000000000000E+00
     -2.29601134834404E-17  -5.54692381558224E-13  -5.54715341671707E-13  -2.14677854735244E-15
      3.20000000000000E-01
      8.00000000000000E-01   8.00000000000000E-01   0.00000000000000E+00   0.00000000000000E+00   1.37221549478017E-15
      3.00537174580442E-17   1.40226921223822E-15   3.83210908521710E-15   0.00000000000000E+00   0.00000000000000E+00
      0.00000000000000E+00   0.00000000000000E+00  -1.03621358003294E-18   1.52436823596977E-12   1.52436719975619E-12
     -1.67465334824107E-15  -1.60000000000000E+01  -1.60000000000000E+01   0.00000000000000E+00   0.00000000000000E+00
     -2.29604830990550E-17  -1.52574650848534E-12  -1.52576946896844E-12  -2.15745573697603E-15
      3.30000000000000E-01
      8.00000000000000E-01   8.00000000000000E-01   0.00000000000000E+00   0.00000000000000E+00   1.36963475316491E-15
     -1.27201700412601E-17   1.35691458312365E-15   3.81871121246825E-15   0.00000000000000E+00   0.00000000000000E+00
      0.00000000000000E+00   0.00000000000000E+00  -1.03620844515317E-18   4.04687877823185E-12   4.04687774202341E-12
     -1.65035523602581E-15  -1.65000000000000E+01  -1.65000000000000E+01   0.00000000000000E+00   0.00000000000000E+00
     -2.29608611230117E-17  -4.04821169574540E-12  -4.04823465660653E-12  -2.16835597644244E-15
      3.40000000000000E-01
      8.00000000000000E-01   8.00000000000000E-01   0.00000000000000E+00   0.00000000000000E+00   1.36413346748521E-15
      8.25846357308213E-18   1.37239193105829E-15   3.80559195946275E-15   0.00000000000000E+00   0.00000000000000E+00
      0.00000000000000E+00   0.00000000000000E+00  -1.03619985732382E-18   1.03443772760935E-11   1.03443762398936E-11
     -1.62611264195461E-15  -1.70000000000000E+01  -1.70000000000000E+01   0.00000000000000E+00   0.00000000000000E+00
     -2.29612475970016E-17  -1.03457256705771E-11  -1.03457486318247E-11  -2.17947931750814E-15
      3.50000000000000E-01
      8.00000000000000E-01   8.00000000000000E-01   0.00000000000000E+00   0.00000000000000E+00   1.35272848366177E-15
      6.29757265094419E-18   1.35902605631272E-15   3.79278632725481E-15   0.00000000000000E+00   0.00000000000000E+00
      0.00000000000000E+00   0.00000000000000E+00  -1.03618323362065E-18   2.54303603938093E-11   2.54303593576261E-11
     -1.60195894305530E-15  -1.75000000000000E+01  -1.75000000000000E+01   0.00000000000000E+00   0.00000000000000E+00
     -2.29616426187980E-17  -2.54316954220399E-11  -2.54317183836825E-11  -2.19082738419951E-15
      3.60000000000000E-01
      8.00000000000000E-01   8.00000000000000E-01   0.00000000000000E+00   0.00000000000000E+00   1.33005327136072E-15
     -3.17285991252249E-17   1.29832467223550E-15   3.78034722305530E-15   0.00000000000000E+00   0.00000000000000E+00