DF-ISE text

Info {
  version   = 1.0
  type      = xyplot
  datasets  = [
    "time"
    "Ntop OuterVoltage" "Ntop InnerVoltage" "Ntop QuasiFermiPotential" "Ntop DisplacementCurrent" "Ntop eCurrent"
    "Ntop hCurrent" "Ntop TotalCurrent" "Ntop Charge" "Ptop OuterVoltage" "Ptop InnerVoltage"
    "Ptop QuasiFermiPotential" "Ptop DisplacementCurrent" "Ptop eCurrent" "Ptop hCurrent" "Ptop TotalCurrent"
    "Ptop Charge" "Pbot OuterVoltage" "Pbot InnerVoltage" "Pbot QuasiFermiPotential" "Pbot DisplacementCurrent"
    "Pbot eCurrent" "Pbot hCurrent" "Pbot TotalCurrent" "Pbot Charge" ]
  functions = [
    Time
    OuterVoltage InnerVoltage QuasiFermiPotential DisplacementCurrent eCurrent
    hCurrent TotalCurrent Charge OuterVoltage InnerVoltage
    QuasiFermiPotential DisplacementCurrent eCurrent hCurrent TotalCurrent
    Charge OuterVoltage InnerVoltage QuasiFermiPotential DisplacementCurrent
    eCurrent hCurrent TotalCurrent Charge ]
}

Data {
      0.00000000000000E+00
      0.00000000000000E+00   0.00000000000000E+00   0.00000000000000E+00   0.00000000000000E+00   6.77576813592910E-26
     -4.53703544802187E-18  -4.53703538026419E-18   4.83420388079660E-15   0.00000000000000E+00   0.00000000000000E+00
      0.00000000000000E+00   0.00000000000000E+00  -6.77567527138124E-26   1.26460639890762E-19   1.26460572134010E-19
     -2.91650069977686E-15   0.00000000000000E+00   0.00000000000000E+00   0.00000000000000E+00   0.00000000000000E+00
     -9.42256555742434E-31   4.41057480813112E-18   4.41057480813018E-18  -1.91770318101974E-15
      0.00000000000000E+00
      0.00000000000000E+00   0.00000000000000E+00   0.00000000000000E+00   0.00000000000000E+00  -4.70951888521012E-27
     -1.49612046134541E-19  -1.49612050844059E-19   4.83420388089997E-15   0.00000000000000E+00   0.00000000000000E+00
      0.00000000000000E+00   0.00000000000000E+00   4.71166009350793E-27  -9.82201100050156E-22  -9.82196388390063E-22
     -2.91650069977685E-15   0.00000000000000E+00   0.00000000000000E+00   0.00000000000000E+00   0.00000000000000E+00
     -1.64928630012966E-30   1.50594247234099E-19   1.50594247232450E-19  -1.91770318112312E-15
      1.00000000000000E-01
      8.00000000000000E-02   8.00000000000000E-02   0.00000000000000E+00   0.00000000000000E+00   1.49315336882023E-16
      6.97786579155680E-21   1.49322314747815E-16   5.09356687109058E-15   0.00000000000000E+00   0.00000000000000E+00
      0.00000000000000E+00   0.00000000000000E+00  -9.93419838305425E-19  -1.33207548803131E-17  -1.43141747186185E-17
     -3.17512089259918E-15   0.00000000000000E+00   0.00000000000000E+00   0.00000000000000E+00   0.00000000000000E+00
     -2.28396109794448E-17  -1.12168529049751E-16  -1.35008140029196E-16  -1.91844597849138E-15
      2.00000000000000E-01
      1.60000000000000E-01   1.60000000000000E-01   0.00000000000000E+00   0.00000000000000E+00   2.14435715187815E-16
      1.03422302091133E-19   2.14539137489906E-16   5.34761276694303E-15   0.00000000000000E+00   0.00000000000000E+00
      0.00000000000000E+00   0.00000000000000E+00  -1.03467216337031E-18  -2.07124931493525E-17  -2.17471653127228E-17
     -3.42842430066577E-15   0.00000000000000E+00   0.00000000000000E+00   0.00000000000000E+00   0.00000000000000E+00
     -2.29524633386325E-17  -1.69839508838551E-16  -1.92791972177183E-16  -1.91918846627727E-15
      3.00000000000000E-01
      2.40000000000000E-01   2.40000000000000E-01   0.00000000000000E+00   0.00000000000000E+00   2.67248596287746E-16
      2.60412302394192E-19   2.67509008590140E-16   5.59687728528184E-15   0.00000000000000E+00   0.00000000000000E+00
      0.00000000000000E+00   0.00000000000000E+00  -1.03622012238393E-18  -2.70685862336321E-17  -2.81048063560160E-17
     -3.67694641221461E-15   0.00000000000000E+00   0.00000000000000E+00   0.00000000000000E+00   0.00000000000000E+00
     -2.29524423937188E-17  -2.16451759840405E-16  -2.39404202234124E-16  -1.91993087306723E-15
      4.00000000000000E-01
      3.20000000000000E-01   3.20000000000000E-01   0.00000000000000E+00   0.00000000000000E+00   3.14027369573115E-16
      2.90542044473204E-19   3.14317911617588E-16   5.84149822377072E-15   0.00000000000000E+00   0.00000000000000E+00
      0.00000000000000E+00   0.00000000000000E+00  -1.03627493258773E-18  -3.29128454453390E-17  -3.39491203779267E-17
     -3.92082500855581E-15   0.00000000000000E+00   0.00000000000000E+00   0.00000000000000E+00   0.00000000000000E+00
     -2.29524636556059E-17  -2.57416327584055E-16  -2.80368791239661E-16  -1.92067321521488E-15
      5.00000000000000E-01
      4.00000000000000E-01   4.00000000000000E-01   0.00000000000000E+00   0.00000000000000E+00   3.56915325521554E-16
      7.56815223683227E-19   3.57672140745237E-16   6.08129124659432E-15   0.00000000000000E+00   0.00000000000000E+00
      0.00000000000000E+00   0.00000000000000E+00  -1.03628461090085E-18  -3.84113674566429E-17  -3.94476520675438E-17
     -4.15987581880798E-15   0.00000000000000E+00   0.00000000000000E+00   0.00000000000000E+00   0.00000000000000E+00
     -2.29524876671109E-17  -2.95272001010582E-16  -3.18224488677693E-16  -1.92141542778633E-15
      6.00000000000000E-01
      4.80000000000000E-01   4.80000000000000E-01   0.00000000000000E+00   0.00000000000000E+00   3.97094557210591E-16
     -1.04434413076757E-19   3.96990122797515E-16   6.31613707934470E-15   0.00000000000000E+00   0.00000000000000E+00
      0.00000000000000E+00   0.00000000000000E+00  -1.03629312614954E-18  -4.36495660402977E-17  -4.46858591664472E-17
     -4.39397965549794E-15   0.00000000000000E+00   0.00000000000000E+00   0.00000000000000E+00   0.00000000000000E+00
     -2.29525117994484E-17  -3.29351751831619E-16  -3.52304263631067E-16  -1.92215742384675E-15
      7.00000000000000E-01
      5.60000000000000E-01   5.60000000000000E-01   0.00000000000000E+00   0.00000000000000E+00   4.35228892073634E-16
      1.02037668441722E-18   4.36249268758051E-16   6.54653438870692E-15   0.00000000000000E+00   0.00000000000000E+00
      0.00000000000000E+00   0.00000000000000E+00  -1.03630108823872E-18  -4.87643263894759E-17  -4.98006274777147E-17
     -4.62363526981737E-15   0.00000000000000E+00   0.00000000000000E+00   0.00000000000000E+00   0.00000000000000E+00
     -2.29525359629469E-17  -3.63496105317389E-16  -3.86448641280336E-16  -1.92289911888954E-15
      8.00000000000000E-01
      6.40000000000000E-01   6.40000000000000E-01   0.00000000000000E+00   0.00000000000000E+00   4.71700168556804E-16
     -2.84539691797858E-19   4.71415628865006E-16   6.77324373491831E-15   0.00000000000000E+00   0.00000000000000E+00
      0.00000000000000E+00   0.00000000000000E+00  -1.03630867097764E-18  -5.38742067737560E-17  -5.49105154447337E-17
     -4.84960329672183E-15   0.00000000000000E+00   0.00000000000000E+00   0.00000000000000E+00   0.00000000000000E+00
     -2.29525601473778E-17  -3.93552553272895E-16  -4.16505113420272E-16  -1.92364043819649E-15
      9.00000000000000E-01
      7.20000000000000E-01   7.20000000000000E-01   0.00000000000000E+00   0.00000000000000E+00   5.06802647383459E-16
      5.45190726983178E-19   5.07347838110443E-16   6.99662179695007E-15   0.00000000000000E+00   0.00000000000000E+00
      0.00000000000000E+00   0.00000000000000E+00  -1.03631571393758E-18  -5.91259907860867E-17  -6.01623065000242E-17
     -5.07224048261499E-15   0.00000000000000E+00   0.00000000000000E+00   0.00000000000000E+00   0.00000000000000E+00
     -2.29525843466236E-17  -4.24232947263795E-16  -4.47185531610419E-16  -1.92438131433508E-15
      1.00000000000000E+00
      8.00000000000000E-01   8.00000000000000E-01   0.00000000000000E+00   0.00000000000000E+00   5.40842839530376E-16
      1.02419714471391E-18   5.41867036675090E-16   7.21666794918811E-15   0.00000000000000E+00   0.00000000000000E+00
      0.00000000000000E+00   0.00000000000000E+00  -1.03632197441241E-18  -6.47074607124862E-17  -6.57437826868986E-17
     -5.29154627391638E-15   0.00000000000000E+00   0.00000000000000E+00   0.00000000000000E+00   0.00000000000000E+00
     -2.29526085552566E-17  -4.53170645432935E-16  -4.76123253988191E-16  -1.92512167527171E-15
      0.00000000000000E+00
      8.00000000000000E-01   8.00000000000000E-01   0.00000000000000E+00   0.00000000000000E+00   5.40842839649827E-16
      3.54326518700728E-19   5.41197166168528E-16   7.21666794918811E-15   0.00000000000000E+00   0.00000000000000E+00
      0.00000000000000E+00   0.00000000000000E+00  -1.03632209388292E-18  -6.47153137343980E-17  -6.57516358282810E-17
     -5.29154627391639E-15   0.00000000000000E+00   0.00000000000000E+00   0.00000000000000E+00   0.00000000000000E+00
     -2.29526085552567E-17  -4.52492921784990E-16  -4.75445530340247E-16  -1.92512167527172E-15
      1.00000000000000E-02
      8.00000000000000E-01   8.00000000000000E-01   0.00000000000000E+00   0.00000000000000E+00   6.95501337874222E-16
     -2.26759836181426E-18   6.93233739512408E-16   7.22126496791783E-15   0.00000000000000E+00   0.00000000000000E+00
      0.00000000000000E+00   0.00000000000000E+00  -1.03632208805607E-18  -6.40928789410287E-17  -6.51292010290848E-17
     -5.29152715273907E-15  -5.00000000000000E-01  -5.00000000000000E-01   0.00000000000000E+00   0.00000000000000E+00
     -2.29527595356246E-17  -6.05151778947698E-16  -6.28104538483323E-16  -1.92973781517876E-15
      2.00000000000000E-02
      8.00000000000000E-01   8.00000000000000E-01   0.00000000000000E+00   0.00000000000000E+00   8.24051478075617E-16
     -1.28950021358914E-18   8.22761977862027E-16   7.22577599079497E-15   0.00000000000000E+00   0.00000000000000E+00
      0.00000000000000E+00   0.00000000000000E+00  -1.03632206166170E-18  -6.36587353612153E-17  -6.46950574228770E-17
     -5.29144056154782E-15  -1.00000000000000E+00  -1.00000000000000E+00   0.00000000000000E+00   0.00000000000000E+00
     -2.29529113560049E-17  -7.35114009083144E-16  -7.58066920439149E-16  -1.93433542924717E-15
      3.00000000000000E-02
      8.00000000000000E-01   8.00000000000000E-01   0.00000000000000E+00   0.00000000000000E+00   9.35205849189088E-16
      2.96559805539447E-18   9.38171447244482E-16   7.23004524179059E-15   0.00000000000000E+00   0.00000000000000E+00
      0.00000000000000E+00   0.00000000000000E+00  -1.03632196413154E-18  -6.34033494687759E-17  -6.44396714329074E-17
     -5.29112072238186E-15  -1.50000000000000E+00  -1.50000000000000E+00   0.00000000000000E+00   0.00000000000000E+00
     -2.29530629021542E-17  -8.50778712909420E-16  -8.73731775811574E-16  -1.93892451940874E-15
      4.00000000000000E-02
      8.00000000000000E-01   8.00000000000000E-01   0.00000000000000E+00   0.00000000000000E+00   1.02825919236414E-15
      7.74900405609264E-19   1.02903409276975E-15   7.23370554608899E-15   0.00000000000000E+00   0.00000000000000E+00
      0.00000000000000E+00   0.00000000000000E+00  -1.03632167105319E-18  -6.33863915056964E-17  -6.44227131767496E-17
     -5.29015938680881E-15  -2.00000000000000E+00  -2.00000000000000E+00   0.00000000000000E+00   0.00000000000000E+00
     -2.29532158756703E-17  -9.41658163717331E-16  -9.64611379593001E-16  -1.94354615928019E-15
      5.00000000000000E-02
      8.00000000000000E-01   8.00000000000000E-01   0.00000000000000E+00   0.00000000000000E+00   1.10368870799900E-15
     -2.67742833048245E-18   1.10101127966852E-15   7.23605474558730E-15   0.00000000000000E+00   0.00000000000000E+00
      0.00000000000000E+00   0.00000000000000E+00  -1.03632095400092E-18  -6.37722550158401E-17  -6.48085759698410E-17
     -5.28779906725514E-15  -2.50000000000000E+00  -2.50000000000000E+00   0.00000000000000E+00   0.00000000000000E+00
     -2.29533720675736E-17  -1.01324933163110E-15  -1.03620270369867E-15  -1.94825567833216E-15
      6.00000000000000E-02
      8.00000000000000E-01   8.00000000000000E-01   0.00000000000000E+00   0.00000000000000E+00   1.16542415400760E-15
      3.20481027657510E-18   1.16862896428418E-15   7.23617795242640E-15   0.00000000000000E+00   0.00000000000000E+00
      0.00000000000000E+00   0.00000000000000E+00  -1.03631953776921E-18  -6.48008812946498E-17  -6.58372008324190E-17
     -5.28307988771539E-15  -3.00000000000000E+00  -3.00000000000000E+00   0.00000000000000E+00   0.00000000000000E+00
     -2.29535329532945E-17  -1.07983823049847E-15  -1.10279176345176E-15  -1.95309806471099E-15
      7.00000000000000E-02
      8.00000000000000E-01   8.00000000000000E-01   0.00000000000000E+00   0.00000000000000E+00   1.21540281961675E-15
      2.65138090537666E-18   1.21805420052213E-15   7.23356139690131E-15   0.00000000000000E+00   0.00000000000000E+00
      0.00000000000000E+00   0.00000000000000E+00  -1.03631730824868E-18  -6.67960181962697E-17  -6.78323355045184E-17
     -5.27545181182847E-15  -3.50000000000000E+00  -3.50000000000000E+00   0.00000000000000E+00   0.00000000000000E+00
     -2.29536997352861E-17  -1.12726816528232E-15  -1.15022186501761E-15  -1.95810958507282E-15
      8.00000000000000E-02
      8.00000000000000E-01   8.00000000000000E-01   0.00000000000000E+00   0.00000000000000E+00   1.25448863358205E-15
     -2.56283074221577E-18   1.25192580283983E-15   7.22856389693201E-15   0.00000000000000E+00   0.00000000000000E+00
      0.00000000000000E+00   0.00000000000000E+00  -1.03631443440134E-18  -6.99762414229532E-17  -7.10125558573546E-17
     -5.26524241961182E-15  -4.00000000000000E+00  -4.00000000000000E+00   0.00000000000000E+00   0.00000000000000E+00
     -2.29538734600451E-17  -1.15795937352243E-15  -1.18091324698248E-15  -1.96332147732018E-15
      9.00000000000000E-02
      8.00000000000000E-01   8.00000000000000E-01   0.00000000000000E+00   0.00000000000000E+00   1.28439730033142E-15
      3.27445833007282E-19   1.28472474616442E-15   7.22192391325996E-15   0.00000000000000E+00   0.00000000000000E+00
      0.00000000000000E+00   0.00000000000000E+00  -1.03631116883973E-18  -7.38909905369824E-17  -7.49273017058221E-17
     -5.25316721342670E-15  -4.50000000000000E+00  -4.50000000000000E+00   0.00000000000000E+00   0.00000000000000E+00
     -2.29540549063767E-17  -1.18684338955223E-15  -1.20979744445860E-15  -1.96875669983327E-15
      1.00000000000000E-01
      8.00000000000000E-01   8.00000000000000E-01   0.00000000000000E+00   0.00000000000000E+00   1.30584297307394E-15
      1.06017185243377E-18   1.30690314492637E-15   7.21418422020389E-15   0.00000000000000E+00   0.00000000000000E+00
      0.00000000000000E+00   0.00000000000000E+00  -1.03630767356533E-18  -7.72007430653699E-17  -7.82370507389353E-17
     -5.23975710619952E-15  -5.00000000000000E+00  -5.00000000000000E+00   0.00000000000000E+00   0.00000000000000E+00
     -2.29542444881470E-17  -1.20571184969929E-15  -1.22866609418744E-15  -1.97442711400438E-15
      1.10000000000000E-01
      8.00000000000000E-01   8.00000000000000E-01   0.00000000000000E+00   0.00000000000000E+00   1.32022566429045E-15
      6.73975049575806E-19   1.32089963934003E-15   7.20564091290039E-15   0.00000000000000E+00   0.00000000000000E+00
      0.00000000000000E+00   0.00000000000000E+00  -1.03630402745535E-18  -7.89657909962921E-17  -8.00020950237474E-17
     -5.22530391901390E-15  -5.50000000000000E+00  -5.50000000000000E+00   0.00000000000000E+00   0.00000000000000E+00
     -2.29544423687293E-17  -1.21794310194755E-15  -1.24089754431628E-15  -1.98033699388649E-15
      1.20000000000000E-01
      8.00000000000000E-01   8.00000000000000E-01   0.00000000000000E+00   0.00000000000000E+00   1.33003068096632E-15
      3.43337060194982E-18   1.33346405156826E-15   7.19644683582431E-15   0.00000000000000E+00   0.00000000000000E+00
      0.00000000000000E+00   0.00000000000000E+00  -1.03630026837201E-18  -7.95351956493237E-17  -8.05714959176957E-17
     -5.20996005001265E-15  -6.00000000000000E+00  -6.00000000000000E+00   0.00000000000000E+00   0.00000000000000E+00
     -2.29546485851212E-17  -1.22993790706545E-15  -1.25289255565057E-15  -1.98648678581169E-15
      1.30000000000000E-01
      8.00000000000000E-01   8.00000000000000E-01   0.00000000000000E+00   0.00000000000000E+00   1.33724196105866E-15
      5.47977258815497E-18   1.34272173364681E-15   7.18667975681142E-15   0.00000000000000E+00   0.00000000000000E+00
      0.00000000000000E+00   0.00000000000000E+00  -1.03629641605590E-18  -7.94445123169120E-17  -8.04808087329679E-17
     -5.19380467067334E-15  -6.50000000000000E+00  -6.50000000000000E+00   0.00000000000000E+00   0.00000000000000E+00
     -2.29548631133779E-17  -1.23928606180047E-15  -1.26224092491385E-15  -1.99287508613806E-15
      1.40000000000000E-01
      8.00000000000000E-01   8.00000000000000E-01   0.00000000000000E+00   0.00000000000000E+00   1.34294585623498E-15
      1.66225856244338E-18   1.34460811479742E-15   7.17637311307911E-15   0.00000000000000E+00   0.00000000000000E+00
      0.00000000000000E+00   0.00000000000000E+00  -1.03629248160089E-18  -7.89852721649594E-17  -8.00215646465603E-17
     -5.17687361142907E-15  -7.00000000000000E+00  -7.00000000000000E+00   0.00000000000000E+00   0.00000000000000E+00
     -2.29550858970579E-17  -1.24163146425380E-15  -1.26458655015086E-15  -1.99949950165004E-15
      1.50000000000000E-01
      8.00000000000000E-01   8.00000000000000E-01   0.00000000000000E+00   0.00000000000000E+00   1.34767700931688E-15
      1.34956956741074E-17   1.36117270499099E-15   7.16552707889986E-15   0.00000000000000E+00   0.00000000000000E+00
      0.00000000000000E+00   0.00000000000000E+00  -1.03628847118536E-18  -7.83166292803101E-17  -7.93529177514955E-17
     -5.15917010528776E-15  -7.50000000000000E+00  -7.50000000000000E+00   0.00000000000000E+00   0.00000000000000E+00
     -2.29553168578567E-17  -1.25886447038164E-15  -1.28181978723949E-15  -2.00635697361209E-15
      1.60000000000000E-01
      8.00000000000000E-01   8.00000000000000E-01   0.00000000000000E+00   0.00000000000000E+00   1.35170867268267E-15
      8.72784908204009E-18   1.36043652176471E-15   7.15410890933363E-15   0.00000000000000E+00   0.00000000000000E+00
      0.00000000000000E+00   0.00000000000000E+00  -1.03628438743858E-18  -7.74938718602334E-17  -7.85301562476720E-17
     -5.14066508843978E-15  -8.00000000000000E+00  -8.00000000000000E+00   0.00000000000000E+00   0.00000000000000E+00
     -2.29555558968518E-17  -1.25895080962018E-15  -1.28190636551703E-15  -2.01344382089386E-15
      1.70000000000000E-01
      8.00000000000000E-01   8.00000000000000E-01   0.00000000000000E+00   0.00000000000000E+00   1.35521098285441E-15
      9.11780522563246E-18   1.36432878808004E-15   7.14204626336026E-15   0.00000000000000E+00   0.00000000000000E+00
      0.00000000000000E+00   0.00000000000000E+00  -1.03628022974631E-18  -7.65453626117305E-17  -7.75816428414768E-17
     -5.12129065598284E-15  -8.50000000000000E+00  -8.50000000000000E+00   0.00000000000000E+00   0.00000000000000E+00
     -2.29558028898262E-17  -1.26379134234874E-15  -1.28674714523857E-15  -2.02075560737741E-15
      1.80000000000000E-01
      8.00000000000000E-01   8.00000000000000E-01   0.00000000000000E+00   0.00000000000000E+00   1.35830684247121E-15
     -1.40634052161830E-18   1.35690050194959E-15   7.12921965762159E-15   0.00000000000000E+00   0.00000000000000E+00
      0.00000000000000E+00   0.00000000000000E+00  -1.03627599436719E-18  -7.54739496353255E-17  -7.65102256296926E-17
     -5.10093266470389E-15  -9.00000000000000E+00  -9.00000000000000E+00   0.00000000000000E+00   0.00000000000000E+00
     -2.29560576819894E-17  -1.25743421863791E-15  -1.28039027631990E-15  -2.02828699291772E-15
      1.90000000000000E-01
      8.00000000000000E-01   8.00000000000000E-01   0.00000000000000E+00   0.00000000000000E+00   1.36110576190917E-15
     -4.11854124003598E-18   1.35698722066914E-15   7.11548038027488E-15   0.00000000000000E+00   0.00000000000000E+00
      0.00000000000000E+00   0.00000000000000E+00  -1.03627167637263E-18  -7.41838117988216E-17  -7.52200834751942E-17
     -5.07944817215243E-15  -9.50000000000000E+00  -9.50000000000000E+00   0.00000000000000E+00   0.00000000000000E+00
     -2.29563201037998E-17  -1.25881081709014E-15  -1.28176713719394E-15  -2.03603220812244E-15
      2.00000000000000E-01
      8.00000000000000E-01   8.00000000000000E-01   0.00000000000000E+00   0.00000000000000E+00   1.36371124685372E-15
      3.53273065135804E-18   1.36724397750508E-15   7.10075661938847E-15   0.00000000000000E+00   0.00000000000000E+00
      0.00000000000000E+00   0.00000000000000E+00  -1.03626727738229E-18  -7.22198686754902E-17  -7.32561359528725E-17
     -5.05676898496850E-15  -1.00000000000000E+01  -1.00000000000000E+01   0.00000000000000E+00   0.00000000000000E+00
     -2.29565900584298E-17  -1.27103125149378E-15  -1.29398784155221E-15  -2.04398763441997E-15
      2.10000000000000E-01
      8.00000000000000E-01   8.00000000000000E-01   0.00000000000000E+00   0.00000000000000E+00   1.36614935942912E-15
      1.49970930348399E-17   1.38114645246396E-15   7.08522633243665E-15   0.00000000000000E+00   0.00000000000000E+00
      0.00000000000000E+00   0.00000000000000E+00  -1.03626281629792E-18  -6.77804245179133E-17  -6.88166873342112E-17
     -5.03307043647559E-15  -1.05000000000000E+01  -1.05000000000000E+01   0.00000000000000E+00   0.00000000000000E+00
     -2.29568676614437E-17  -1.28937289746830E-15  -1.31232976512974E-15  -2.05215589596106E-15
      2.20000000000000E-01
      8.00000000000000E-01   8.00000000000000E-01   0.00000000000000E+00   0.00000000000000E+00   1.36838296665548E-15
      1.15498079861699E-17   1.37993277464165E-15   7.06927751828695E-15   0.00000000000000E+00   0.00000000000000E+00
      0.00000000000000E+00   0.00000000000000E+00  -1.03625832410201E-18  -5.41630104699664E-17  -5.51992687940684E-17
     -5.00873272641208E-15  -1.10000000000000E+01  -1.10000000000000E+01   0.00000000000000E+00   0.00000000000000E+00
     -2.29571532060537E-17  -1.30177635264153E-15  -1.32473350584758E-15  -2.06054479187487E-15
      2.30000000000000E-01
      8.00000000000000E-01   8.00000000000000E-01   0.00000000000000E+00   0.00000000000000E+00   1.37036737438628E-15
     -1.11337400778995E-17   1.35923363430838E-15   7.05324663887850E-15   0.00000000000000E+00   0.00000000000000E+00
      0.00000000000000E+00   0.00000000000000E+00  -1.03625382541377E-18  -7.23689979332723E-18  -8.27315361874099E-18
     -4.98408564512020E-15  -1.15000000000000E+01  -1.15000000000000E+01   0.00000000000000E+00   0.00000000000000E+00
     -2.29574469494917E-17  -1.32800303374015E-15  -1.35096048068964E-15  -2.06916099375830E-15
      2.40000000000000E-01
      8.00000000000000E-01   8.00000000000000E-01   0.00000000000000E+00   0.00000000000000E+00   1.37206269204803E-15
     -1.00315363086454E-17   1.36203115573939E-15   7.03731311694931E-15   0.00000000000000E+00   0.00000000000000E+00
      0.00000000000000E+00   0.00000000000000E+00  -1.03624933274352E-18   1.56954816051121E-16   1.55918566718378E-16
     -4.95930560146739E-15  -1.20000000000000E+01  -1.20000000000000E+01   0.00000000000000E+00   0.00000000000000E+00
     -2.29577490262849E-17  -1.49499197343148E-15  -1.51794972245777E-15  -2.07800751548192E-15
      2.50000000000000E-01
      8.00000000000000E-01   8.00000000000000E-01   0.00000000000000E+00   0.00000000000000E+00   1.37341914335866E-15
      2.92239371291630E-18   1.37634153707158E-15   7.02155290933470E-15   0.00000000000000E+00   0.00000000000000E+00
      0.00000000000000E+00   0.00000000000000E+00  -1.03624484126689E-18   7.20440789964492E-16   7.19404545123225E-16
     -4.93446795234991E-15  -1.25000000000000E+01  -1.25000000000000E+01   0.00000000000000E+00   0.00000000000000E+00
     -2.29580594898697E-17  -2.07278802270493E-15  -2.09574608219480E-15  -2.08708495698480E-15
      2.60000000000000E-01
      8.00000000000000E-01   8.00000000000000E-01   0.00000000000000E+00   0.00000000000000E+00   1.37438681726669E-15
      2.03971191419627E-18   1.37642652918088E-15   7.00599627142006E-15   0.00000000000000E+00   0.00000000000000E+00
      0.00000000000000E+00   0.00000000000000E+00  -1.03624035719268E-18   2.59641050766301E-15   2.59537426730582E-15
     -4.90960342737698E-15  -1.30000000000000E+01  -1.30000000000000E+01   0.00000000000000E+00   0.00000000000000E+00
     -2.29583783578704E-17  -3.94884241812882E-15  -3.97180079648669E-15  -2.09639284404306E-15
      2.70000000000000E-01
      8.00000000000000E-01   8.00000000000000E-01   0.00000000000000E+00   0.00000000000000E+00   1.37495473078838E-15
      8.23000187488457E-18   1.38318473266327E-15   6.99065603699686E-15   0.00000000000000E+00   0.00000000000000E+00
      0.00000000000000E+00   0.00000000000000E+00  -1.03623590814413E-18   8.63466025033452E-15   8.63362401442637E-15
     -4.88472576026275E-15  -1.35000000000000E+01  -1.35000000000000E+01   0.00000000000000E+00   0.00000000000000E+00
     -2.29587056340770E-17  -9.99385004145556E-15  -1.00168087470896E-14  -2.10593027673415E-15
      2.80000000000000E-01
      8.00000000000000E-01   8.00000000000000E-01   0.00000000000000E+00   0.00000000000000E+00   1.37516439641343E-15
     -1.28269945326985E-17   1.36233740188073E-15   6.97553900519365E-15   0.00000000000000E+00   0.00000000000000E+00
      0.00000000000000E+00   0.00000000000000E+00  -1.03623144683942E-18   2.73996737710949E-14   2.73986375396480E-14
     -4.85984281943577E-15  -1.40000000000000E+01  -1.40000000000000E+01   0.00000000000000E+00   0.00000000000000E+00
     -2.29590413171273E-17  -2.87380159002116E-14  -2.87609749415287E-14  -2.11569618575787E-15
      2.90000000000000E-01
      8.00000000000000E-01   8.00000000000000E-01   0.00000000000000E+00   0.00000000000000E+00   1.37506525356336E-15
     -2.13543480736867E-17   1.35371090548967E-15   6.96065051100480E-15   0.00000000000000E+00   0.00000000000000E+00
      0.00000000000000E+00   0.00000000000000E+00  -1.03622703866801E-18   8.36598053607956E-14   8.36587691337569E-14
     -4.83496107652160E-15  -1.45000000000000E+01  -1.45000000000000E+01   0.00000000000000E+00   0.00000000000000E+00
     -2.29593854039789E-17  -8.49895206538423E-14  -8.50124800392463E-14  -2.12568943448319E-15
      3.00000000000000E-01
      8.00000000000000E-01   8.00000000000000E-01   0.00000000000000E+00   0.00000000000000E+00   1.37464965448597E-15
     -2.23874024543721E-18   1.37241091424053E-15   6.94599656018067E-15   0.00000000000000E+00   0.00000000000000E+00
      0.00000000000000E+00   0.00000000000000E+00  -1.03622260456698E-18   2.46283624478977E-13   2.46282588256373E-13
     -4.81008768667180E-15  -1.50000000000000E+01  -1.50000000000000E+01   0.00000000000000E+00   0.00000000000000E+00
     -2.29597378917676E-17  -2.47632039432723E-13  -2.47654999170614E-13  -2.13590887350886E-15
      3.10000000000000E-01
      8.00000000000000E-01   8.00000000000000E-01   0.00000000000000E+00   0.00000000000000E+00   1.37378652084311E-15
     -3.24283806146173E-17   1.34135814022849E-15   6.93158524085043E-15   0.00000000000000E+00   0.00000000000000E+00
      0.00000000000000E+00   0.00000000000000E+00  -1.03621727000775E-18   6.99186638142794E-13   6.99185601925524E-13
     -4.78523184117258E-15  -1.55000000000000E+01  -1.55000000000000E+01   0.00000000000000E+00   0.00000000000000E+00
     -2.29600987798472E-17  -7.00503999966972E-13  -7.00526960065752E-13  -2.14635339967782E-15
      3.20000000000000E-01
      8.00000000000000E-01   8.00000000000000E-01   0.00000000000000E+00   0.00000000000000E+00   1.37211039242505E-15
     -2.44194652047310E-17   1.34769092722031E-15   6.91742815698150E-15   0.00000000000000E+00   0.00000000000000E+00
      0.00000000000000E+00   0.00000000000000E+00  -1.03621255507138E-18   1.91348642523704E-12   1.91348538902449E-12
     -4.76040609140157E-15  -1.60000000000000E+01  -1.60000000000000E+01   0.00000000000000E+00   0.00000000000000E+00
     -2.29604680736140E-17  -1.91481011948363E-12  -1.91483307995171E-12  -2.15702206557994E-15
      3.30000000000000E-01
      8.00000000000000E-01   8.00000000000000E-01   0.00000000000000E+00   0.00000000000000E+00   1.36878277330981E-15
      2.21308718616564E-17   1.39091364517146E-15   6.90354236531809E-15   0.00000000000000E+00   0.00000000000000E+00
      0.00000000000000E+00   0.00000000000000E+00  -1.03620672555036E-18   5.04484951853518E-12   5.04484848232846E-12
     -4.73562805212196E-15  -1.65000000000000E+01  -1.65000000000000E+01   0.00000000000000E+00   0.00000000000000E+00
     -2.29608457927256E-17  -5.04621643512783E-12  -5.04623939597362E-12  -2.16791431319612E-15
      3.40000000000000E-01
      8.00000000000000E-01   8.00000000000000E-01   0.00000000000000E+00   0.00000000000000E+00   1.36201736024273E-15
      1.76986906842404E-17   1.37971605092697E-15   6.88995334019127E-15   0.00000000000000E+00   0.00000000000000E+00
      0.00000000000000E+00   0.00000000000000E+00  -1.03619646265109E-18   1.28019261560276E-11   1.28019251198312E-11
     -4.71092287139527E-15  -1.70000000000000E+01  -1.70000000000000E+01   0.00000000000000E+00   0.00000000000000E+00
     -2.29612319885533E-17  -1.28032818746502E-11  -1.28033048358822E-11  -2.17903046879598E-15
      3.50000000000000E-01
      8.00000000000000E-01   8.00000000000000E-01   0.00000000000000E+00   0.00000000000000E+00   1.34829270773673E-15
     -2.51931506742936E-17   1.32309955706243E-15   6.87669968348351E-15   0.00000000000000E+00   0.00000000000000E+00
      0.00000000000000E+00   0.00000000000000E+00  -1.03617566828391E-18   3.12312357972173E-11   3.12312347610416E-11
     -4.68632694061739E-15  -1.75000000000000E+01  -1.75000000000000E+01   0.00000000000000E+00   0.00000000000000E+00
     -2.29616267795847E-17  -3.12325348989721E-11  -3.12325578605989E-11  -2.19037274286610E-15
      3.60000000000000E-01
      8.00000000000000E-01   8.00000000000000E-01   0.00000000000000E+00   0.00000000000000E+00   1.32148969525017E-15
      1.32377387137673E-17   1.33472743396394E-15   6.86384049094885E-15   0.00000000000000E+00   0.00000000000000E+00