DF-ISE text

Info {
  version   = 1.0
  type      = xyplot
  datasets  = [
    "time"
    "Ntop OuterVoltage" "Ntop InnerVoltage" "Ntop QuasiFermiPotential" "Ntop DisplacementCurrent" "Ntop eCurrent"
    "Ntop hCurrent" "Ntop TotalCurrent" "Ntop Charge" "Ptop OuterVoltage" "Ptop InnerVoltage"
    "Ptop QuasiFermiPotential" "Ptop DisplacementCurrent" "Ptop eCurrent" "Ptop hCurrent" "Ptop TotalCurrent"
    "Ptop Charge" "Pbot OuterVoltage" "Pbot InnerVoltage" "Pbot QuasiFermiPotential" "Pbot DisplacementCurrent"
    "Pbot eCurrent" "Pbot hCurrent" "Pbot TotalCurrent" "Pbot Charge" ]
  functions = [
    Time
    OuterVoltage InnerVoltage QuasiFermiPotential DisplacementCurrent eCurrent
    hCurrent TotalCurrent Charge OuterVoltage InnerVoltage
    QuasiFermiPotential DisplacementCurrent eCurrent hCurrent TotalCurrent
    Charge OuterVoltage InnerVoltage QuasiFermiPotential DisplacementCurrent
    eCurrent hCurrent TotalCurrent Charge ]
}

Data {
      0.00000000000000E+00
      0.00000000000000E+00   0.00000000000000E+00   0.00000000000000E+00   0.00000000000000E+00   1.51955292329965E-26
     -4.25039202744209E-18  -4.25039201224656E-18   3.16392399511735E-15   0.00000000000000E+00   0.00000000000000E+00
      0.00000000000000E+00   0.00000000000000E+00  -1.52044889542977E-26   7.64787030961095E-20   7.64786878916206E-20
     -1.24622081409199E-15   0.00000000000000E+00   0.00000000000000E+00   0.00000000000000E+00   0.00000000000000E+00
      8.95105455173670E-30   4.17391332434598E-18   4.17391332435493E-18  -1.91770318102535E-15
      0.00000000000000E+00
      0.00000000000000E+00   0.00000000000000E+00   0.00000000000000E+00   0.00000000000000E+00  -1.10990550923562E-26
     -8.83883275868354E-20  -8.83883386858905E-20   3.16392399522073E-15   0.00000000000000E+00   0.00000000000000E+00
      0.00000000000000E+00   0.00000000000000E+00   1.11000159805124E-26   2.32109103530623E-21   2.32110213532221E-21
     -1.24622081409200E-15   0.00000000000000E+00   0.00000000000000E+00   0.00000000000000E+00   0.00000000000000E+00
     -4.70838741908113E-31   8.60672365510391E-20   8.60672365505682E-20  -1.91770318112873E-15
      1.00000000000000E-01
      8.00000000000000E-02   8.00000000000000E-02   0.00000000000000E+00   0.00000000000000E+00   1.48993450122214E-16
     -2.40314809455426E-19   1.48753135312759E-16   3.26886070006200E-15   0.00000000000000E+00   0.00000000000000E+00
      0.00000000000000E+00   0.00000000000000E+00  -9.93420165863511E-19  -1.29344571870335E-17  -1.39278773528971E-17
     -1.35041472155402E-15   0.00000000000000E+00   0.00000000000000E+00   0.00000000000000E+00   0.00000000000000E+00
     -2.28396109800599E-17  -1.11985646979802E-16  -1.34825257959862E-16  -1.91844597850798E-15
      2.00000000000000E-01
      1.60000000000000E-01   1.60000000000000E-01   0.00000000000000E+00   0.00000000000000E+00   2.13876837527627E-16
      4.87730522481296E-19   2.14364568050108E-16   3.37168867044346E-15   0.00000000000000E+00   0.00000000000000E+00
      0.00000000000000E+00   0.00000000000000E+00  -1.03467250533494E-18  -2.00753534001282E-17  -2.11100259054631E-17
     -1.45250020412290E-15   0.00000000000000E+00   0.00000000000000E+00   0.00000000000000E+00   0.00000000000000E+00
     -2.29524633392324E-17  -1.70302078805413E-16  -1.93254542144646E-16  -1.91918846632057E-15
      3.00000000000000E-01
      2.40000000000000E-01   2.40000000000000E-01   0.00000000000000E+00   0.00000000000000E+00   2.66524759459302E-16
      2.64314061810694E-19   2.66789073521113E-16   3.47261993122247E-15   0.00000000000000E+00   0.00000000000000E+00
      0.00000000000000E+00   0.00000000000000E+00  -1.03622047233580E-18  -2.62841003872377E-17  -2.73203208595735E-17
     -1.55268905804920E-15   0.00000000000000E+00   0.00000000000000E+00   0.00000000000000E+00   0.00000000000000E+00
     -2.29524423937215E-17  -2.16516310267818E-16  -2.39468752661540E-16  -1.91993087317327E-15
      4.00000000000000E-01
      3.20000000000000E-01   3.20000000000000E-01   0.00000000000000E+00   0.00000000000000E+00   3.13230667160093E-16
      3.84267984842149E-19   3.13614935144936E-16   3.57169030790184E-15   0.00000000000000E+00   0.00000000000000E+00
      0.00000000000000E+00   0.00000000000000E+00  -1.03627531272835E-18  -3.20484997291527E-17  -3.30847750418811E-17
     -1.65101709243817E-15   0.00000000000000E+00   0.00000000000000E+00   0.00000000000000E+00   0.00000000000000E+00
     -2.29524636556139E-17  -2.57577696447440E-16  -2.80530160103054E-16  -1.92067321546366E-15
      5.00000000000000E-01
      4.00000000000000E-01   4.00000000000000E-01   0.00000000000000E+00   0.00000000000000E+00   3.56088374054974E-16
     -1.20611842347713E-18   3.54882255631497E-16   3.66886602255679E-15   0.00000000000000E+00   0.00000000000000E+00
      0.00000000000000E+00   0.00000000000000E+00  -1.03628505198864E-18  -3.75040603996821E-17  -3.85403454516707E-17
     -1.74745059420356E-15   0.00000000000000E+00   0.00000000000000E+00   0.00000000000000E+00   0.00000000000000E+00
     -2.29524876671294E-17  -2.93389422512697E-16  -3.16341910179826E-16  -1.92141542835324E-15
      6.00000000000000E-01
      4.80000000000000E-01   4.80000000000000E-01   0.00000000000000E+00   0.00000000000000E+00   3.96202777060578E-16
      3.31433948383925E-19   3.96534211008962E-16   3.76408905564039E-15   0.00000000000000E+00   0.00000000000000E+00
      0.00000000000000E+00   0.00000000000000E+00  -1.03629364534501E-18  -4.26880213267797E-17  -4.37243149721247E-17
     -1.84193163052310E-15   0.00000000000000E+00   0.00000000000000E+00   0.00000000000000E+00   0.00000000000000E+00
     -2.29525117994903E-17  -3.29857384237348E-16  -3.52809896036838E-16  -1.92215742511729E-15
      7.00000000000000E-01
      5.60000000000000E-01   5.60000000000000E-01   0.00000000000000E+00   0.00000000000000E+00   4.34197357874108E-16
     -1.85136562884756E-19   4.34012221311224E-16   3.85728155444075E-15   0.00000000000000E+00   0.00000000000000E+00
      0.00000000000000E+00   0.00000000000000E+00  -1.03630170796912E-18  -4.76460803465116E-17  -4.86823820544807E-17
     -1.93438243271538E-15   0.00000000000000E+00   0.00000000000000E+00   0.00000000000000E+00   0.00000000000000E+00
     -2.29525359630396E-17  -3.62377303293703E-16  -3.85329839256743E-16  -1.92289912172538E-15
      8.00000000000000E-01
      6.40000000000000E-01   6.40000000000000E-01   0.00000000000000E+00   0.00000000000000E+00   4.70433824758869E-16
      1.35146187349972E-19   4.70568970946219E-16   3.94833192022454E-15   0.00000000000000E+00   0.00000000000000E+00
      0.00000000000000E+00   0.00000000000000E+00  -1.03630941308504E-18  -5.25111951293813E-17  -5.35475045424664E-17
     -2.02469147564113E-15   0.00000000000000E+00   0.00000000000000E+00   0.00000000000000E+00   0.00000000000000E+00
     -2.29525601475862E-17  -3.94068906256167E-16  -4.17021466403753E-16  -1.92364044458341E-15
      9.00000000000000E-01
      7.20000000000000E-01   7.20000000000000E-01   0.00000000000000E+00   0.00000000000000E+00   5.05200132317327E-16
     -1.33661295836321E-19   5.05066471021491E-16   4.03708420373669E-15   0.00000000000000E+00   0.00000000000000E+00
      0.00000000000000E+00   0.00000000000000E+00  -1.03631660349567E-18  -5.74255208139209E-17  -5.84618374174165E-17
     -2.11270287470661E-15   0.00000000000000E+00   0.00000000000000E+00   0.00000000000000E+00   0.00000000000000E+00
     -2.29525843471039E-17  -4.23652049256971E-16  -4.46604633604075E-16  -1.92438132903009E-15
      1.00000000000000E+00
      8.00000000000000E-01   8.00000000000000E-01   0.00000000000000E+00   0.00000000000000E+00   5.38787178866418E-16
      4.20176356086691E-19   5.39207355222505E-16   4.12336000394284E-15   0.00000000000000E+00   0.00000000000000E+00
      0.00000000000000E+00   0.00000000000000E+00  -1.03632310097326E-18  -6.25533961276375E-17  -6.35897192286108E-17
     -2.19823829392721E-15   0.00000000000000E+00   0.00000000000000E+00   0.00000000000000E+00   0.00000000000000E+00
     -2.29526085563932E-17  -4.52665027437501E-16  -4.75617635993895E-16  -1.92512171001562E-15
      0.00000000000000E+00
      8.00000000000000E-01   8.00000000000000E-01   0.00000000000000E+00   0.00000000000000E+00   5.38787178949646E-16
     -6.14358124562377E-19   5.38172820825083E-16   4.12336000394284E-15   0.00000000000000E+00   0.00000000000000E+00
      0.00000000000000E+00   0.00000000000000E+00  -1.03632318420504E-18  -6.25515676135278E-17  -6.35878907977329E-17
     -2.19823829392721E-15   0.00000000000000E+00   0.00000000000000E+00   0.00000000000000E+00   0.00000000000000E+00
     -2.29526085563935E-17  -4.51632321470957E-16  -4.74584930027351E-16  -1.92512171001562E-15
      1.00000000000000E-02
      8.00000000000000E-01   8.00000000000000E-01   0.00000000000000E+00   0.00000000000000E+00   6.93423131182576E-16
     -4.92642176800655E-18   6.88496709414569E-16   4.12796085307096E-15   0.00000000000000E+00   0.00000000000000E+00
      0.00000000000000E+00   0.00000000000000E+00  -1.03632317906082E-18  -6.19591817077864E-17  -6.29955048868473E-17
     -2.19822281839329E-15  -5.00000000000000E-01  -5.00000000000000E-01   0.00000000000000E+00   0.00000000000000E+00
     -2.29527595428415E-17  -6.02548444984880E-16  -6.25501204527721E-16  -1.92973803467768E-15
      2.00000000000000E-02
      8.00000000000000E-01   8.00000000000000E-01   0.00000000000000E+00   0.00000000000000E+00   8.21874770534297E-16
     -7.59424686683792E-19   8.21115345847613E-16   4.13248933876522E-15   0.00000000000000E+00   0.00000000000000E+00
      0.00000000000000E+00   0.00000000000000E+00  -1.03632315580437E-18  -6.15387558340066E-17  -6.25750789898110E-17
     -2.19815286792255E-15  -1.00000000000000E+00  -1.00000000000000E+00   0.00000000000000E+00   0.00000000000000E+00
     -2.29529113903569E-17  -7.35587355467446E-16  -7.58540266857803E-16  -1.93433647084267E-15
      3.00000000000000E-02
      8.00000000000000E-01   8.00000000000000E-01   0.00000000000000E+00   0.00000000000000E+00   9.32700727520607E-16
      1.42729904254690E-19   9.32843457424862E-16   4.13682428268566E-15   0.00000000000000E+00   0.00000000000000E+00
      0.00000000000000E+00   0.00000000000000E+00  -1.03632307033566E-18  -6.12918187634513E-17  -6.23281418337870E-17
     -2.19789585005497E-15  -1.50000000000000E+00  -1.50000000000000E+00   0.00000000000000E+00   0.00000000000000E+00
     -2.29530630315393E-17  -8.47562252559536E-16  -8.70515315591075E-16  -1.93892843263067E-15
      4.00000000000000E-02
      8.00000000000000E-01   8.00000000000000E-01   0.00000000000000E+00   0.00000000000000E+00   1.02496646680048E-15
     -3.32142700586507E-19   1.02463432409989E-15   4.14068946305921E-15   0.00000000000000E+00   0.00000000000000E+00
      0.00000000000000E+00   0.00000000000000E+00  -1.03632281630073E-18  -6.12565077691171E-17  -6.22928305854178E-17
     -2.19713160316625E-15  -2.00000000000000E+00  -2.00000000000000E+00   0.00000000000000E+00   0.00000000000000E+00
     -2.29532162633541E-17  -9.39388277251117E-16  -9.62341493514471E-16  -1.94355785989295E-15
      5.00000000000000E-02
      8.00000000000000E-01   8.00000000000000E-01   0.00000000000000E+00   0.00000000000000E+00   1.09883100529500E-15
      4.69403886300718E-19   1.09930040918130E-15   4.14356692236223E-15   0.00000000000000E+00   0.00000000000000E+00
      0.00000000000000E+00   0.00000000000000E+00  -1.03632220365719E-18  -6.15235917952359E-17  -6.25599139988931E-17
     -2.19528268869278E-15  -2.50000000000000E+00  -2.50000000000000E+00   0.00000000000000E+00   0.00000000000000E+00
     -2.29533730154886E-17  -1.01378712216691E-15  -1.03674049518240E-15  -1.94828423366945E-15
      6.00000000000000E-02
      8.00000000000000E-01   8.00000000000000E-01   0.00000000000000E+00   0.00000000000000E+00   1.15822826887898E-15
      6.19516112086961E-18   1.16442342999985E-15   4.14477715406097E-15   0.00000000000000E+00   0.00000000000000E+00
      0.00000000000000E+00   0.00000000000000E+00  -1.03632100217522E-18  -6.22627234012246E-17  -6.32990444033998E-17
     -2.19162107149469E-15  -3.00000000000000E+00  -3.00000000000000E+00   0.00000000000000E+00   0.00000000000000E+00
     -2.29535348825526E-17  -1.07817085071390E-15  -1.10112438559645E-15  -1.95315608256626E-15
      7.00000000000000E-02
      8.00000000000000E-01   8.00000000000000E-01   0.00000000000000E+00   0.00000000000000E+00   1.20575356054936E-15
     -7.10459726617260E-18   1.19864896328319E-15   4.14386328437134E-15   0.00000000000000E+00   0.00000000000000E+00
      0.00000000000000E+00   0.00000000000000E+00  -1.03631908499807E-18  -6.36992094513727E-17  -6.47355285363708E-17
     -2.18565398350847E-15  -3.50000000000000E+00  -3.50000000000000E+00   0.00000000000000E+00   0.00000000000000E+00
     -2.29537030564954E-17  -1.11095973169033E-15  -1.13391343474682E-15  -1.95820930086287E-15
      8.00000000000000E-02
      8.00000000000000E-01   8.00000000000000E-01   0.00000000000000E+00   0.00000000000000E+00   1.24282104214526E-15
      8.98712663435755E-18   1.25180816877962E-15   4.14095085774020E-15   0.00000000000000E+00   0.00000000000000E+00
      0.00000000000000E+00   0.00000000000000E+00  -1.03631654039343E-18  -6.60397593479651E-17  -6.70760758883586E-17
     -2.17748047695850E-15  -4.00000000000000E+00  -4.00000000000000E+00   0.00000000000000E+00   0.00000000000000E+00
     -2.29538784272661E-17  -1.16177821446399E-15  -1.18473209289126E-15  -1.96347038078170E-15
      9.00000000000000E-02
      8.00000000000000E-01   8.00000000000000E-01   0.00000000000000E+00   0.00000000000000E+00   1.27185125997503E-15
      9.75809956391808E-18   1.28160935953895E-15   4.13654709818785E-15   0.00000000000000E+00   0.00000000000000E+00
      0.00000000000000E+00   0.00000000000000E+00  -1.03631356946531E-18  -6.92052531771474E-17  -7.02415667466127E-17
     -2.16758860243744E-15  -4.50000000000000E+00  -4.50000000000000E+00   0.00000000000000E+00   0.00000000000000E+00
     -2.29540616482434E-17  -1.18841373114409E-15  -1.21136779279233E-15  -1.96895849575040E-15
      1.00000000000000E-01
      8.00000000000000E-01   8.00000000000000E-01   0.00000000000000E+00   0.00000000000000E+00   1.29390140512647E-15
     -6.13373718379554E-18   1.28776766794267E-15   4.13110940964396E-15   0.00000000000000E+00   0.00000000000000E+00
      0.00000000000000E+00   0.00000000000000E+00  -1.03631033131997E-18  -7.23941329550531E-17  -7.34304432863731E-17
     -2.15642486080646E-15  -5.00000000000000E+00  -5.00000000000000E+00   0.00000000000000E+00   0.00000000000000E+00
     -2.29542531017257E-17  -1.19138297155457E-15  -1.21433722465630E-15  -1.97468454883750E-15
      1.10000000000000E-01
      8.00000000000000E-01   8.00000000000000E-01   0.00000000000000E+00   0.00000000000000E+00   1.30968357851248E-15
     -3.16271140714522E-19   1.30936730737176E-15   4.12492055112633E-15   0.00000000000000E+00   0.00000000000000E+00
      0.00000000000000E+00   0.00000000000000E+00  -1.03630691491678E-18  -7.45976279411561E-17  -7.56339348560729E-17
     -2.14426757514931E-15  -5.50000000000000E+00  -5.50000000000000E+00   0.00000000000000E+00   0.00000000000000E+00
     -2.29544529569068E-17  -1.21077891955878E-15  -1.23373337251569E-15  -1.98065297597701E-15
      1.20000000000000E-01
      8.00000000000000E-01   8.00000000000000E-01   0.00000000000000E+00   0.00000000000000E+00   1.32078812054538E-15
      9.41772370152180E-19   1.32172989291554E-15   4.11814073551535E-15   0.00000000000000E+00   0.00000000000000E+00
      0.00000000000000E+00   0.00000000000000E+00  -1.03630336667381E-18  -7.56543269196874E-17  -7.66906302863612E-17
     -2.13127615861209E-15  -6.00000000000000E+00  -6.00000000000000E+00   0.00000000000000E+00   0.00000000000000E+00
     -2.29546612630958E-17  -1.22208460136608E-15  -1.24503926262918E-15  -1.98686457690327E-15
      1.30000000000000E-01
      8.00000000000000E-01   8.00000000000000E-01   0.00000000000000E+00   0.00000000000000E+00   1.32899634382394E-15
      1.45448124970376E-17   1.34354115632097E-15   4.11086340785562E-15   0.00000000000000E+00   0.00000000000000E+00
      0.00000000000000E+00   0.00000000000000E+00  -1.03629971232384E-18  -7.59612250486955E-17  -7.69975247610193E-17
     -2.11754506371175E-15  -6.50000000000000E+00  -6.50000000000000E+00   0.00000000000000E+00   0.00000000000000E+00
     -2.29548780101959E-17  -1.24358875354976E-15  -1.26654363155995E-15  -1.99331834414387E-15
      1.40000000000000E-01
      8.00000000000000E-01   8.00000000000000E-01   0.00000000000000E+00   0.00000000000000E+00   1.33546010147986E-15
     -6.09442145189369E-18   1.32936568002796E-15   4.10314620897005E-15   0.00000000000000E+00   0.00000000000000E+00
      0.00000000000000E+00   0.00000000000000E+00  -1.03629596762293E-18  -7.58455660608695E-17  -7.68818620284925E-17
     -2.10313381570040E-15  -7.00000000000000E+00  -7.00000000000000E+00   0.00000000000000E+00   0.00000000000000E+00
     -2.29551031595089E-17  -1.22952871483996E-15  -1.25248381799947E-15  -2.00001239326966E-15
      1.50000000000000E-01
      8.00000000000000E-01   8.00000000000000E-01   0.00000000000000E+00   0.00000000000000E+00   1.34078072270784E-15
     -1.07218690456994E-17   1.33005885366214E-15   4.09502627581958E-15   0.00000000000000E+00   0.00000000000000E+00
      0.00000000000000E+00   0.00000000000000E+00  -1.03629214315835E-18  -7.54730641004511E-17  -7.65093562436095E-17
     -2.08808185767038E-15  -7.50000000000000E+00  -7.50000000000000E+00   0.00000000000000E+00   0.00000000000000E+00
     -2.29553366588148E-17  -1.23059416075972E-15  -1.25354949741853E-15  -2.00694441814919E-15
      1.60000000000000E-01
      8.00000000000000E-01   8.00000000000000E-01   0.00000000000000E+00   0.00000000000000E+00   1.34526385286110E-15
     -8.03014188568285E-19   1.34446083867254E-15   4.08652783186198E-15   0.00000000000000E+00   0.00000000000000E+00
      0.00000000000000E+00   0.00000000000000E+00  -1.03628824657325E-18  -7.49221437401510E-17  -7.59584319867243E-17
     -2.07241591342507E-15  -8.00000000000000E+00  -8.00000000000000E+00   0.00000000000000E+00   0.00000000000000E+00
     -2.29555784499118E-17  -1.24554682823590E-15  -1.26850240668581E-15  -2.01411191843690E-15
      1.70000000000000E-01
      8.00000000000000E-01   8.00000000000000E-01   0.00000000000000E+00   0.00000000000000E+00   1.34908638145587E-15
      9.29119878210989E-18   1.35837758023798E-15   4.07766601972603E-15   0.00000000000000E+00   0.00000000000000E+00
      0.00000000000000E+00   0.00000000000000E+00  -1.03628428366859E-18  -7.42299759265711E-17  -7.52662602102396E-17
     -2.05615370507179E-15  -8.50000000000000E+00  -8.50000000000000E+00   0.00000000000000E+00   0.00000000000000E+00
     -2.29558284724089E-17  -1.26015549155533E-15  -1.28311132002774E-15  -2.02151231465423E-15
      1.80000000000000E-01
      8.00000000000000E-01   8.00000000000000E-01   0.00000000000000E+00   0.00000000000000E+00   1.35237981504689E-15
      2.68380733336643E-18   1.35506362238025E-15   4.06844872546377E-15   0.00000000000000E+00   0.00000000000000E+00
      0.00000000000000E+00   0.00000000000000E+00  -1.03628025898311E-18  -7.34114525655084E-17  -7.44477328244915E-17
     -2.03930572384301E-15  -9.00000000000000E+00  -9.00000000000000E+00   0.00000000000000E+00   0.00000000000000E+00
     -2.29560866654907E-17  -1.25765980289027E-15  -1.28061588955576E-15  -2.02914300162076E-15
      1.90000000000000E-01
      8.00000000000000E-01   8.00000000000000E-01   0.00000000000000E+00   0.00000000000000E+00   1.35525171241624E-15
     -1.25298460473136E-17   1.34272186636892E-15   4.05887713833357E-15   0.00000000000000E+00   0.00000000000000E+00
      0.00000000000000E+00   0.00000000000000E+00  -1.03627617610277E-18  -7.24402141449235E-17  -7.34764903210263E-17
     -2.02187577615095E-15  -9.50000000000000E+00  -9.50000000000000E+00   0.00000000000000E+00   0.00000000000000E+00
     -2.29563529683412E-17  -1.24628902307956E-15  -1.26924537604790E-15  -2.03700136218262E-15
      2.00000000000000E-01
      8.00000000000000E-01   8.00000000000000E-01   0.00000000000000E+00   0.00000000000000E+00   1.35778066424237E-15
      1.47312256983446E-18   1.35925378681220E-15   4.04894537744250E-15   0.00000000000000E+00   0.00000000000000E+00
      0.00000000000000E+00   0.00000000000000E+00  -1.03627203781466E-18  -7.12003598043726E-17  -7.22366318421873E-17
     -2.00386062517996E-15  -1.00000000000000E+01  -1.00000000000000E+01   0.00000000000000E+00   0.00000000000000E+00
     -2.29566273196001E-17  -1.26406052765041E-15  -1.28701715497001E-15  -2.04508475226251E-15
      2.10000000000000E-01
      8.00000000000000E-01   8.00000000000000E-01   0.00000000000000E+00   0.00000000000000E+00   1.36004595630971E-15
     -6.98035534888763E-18   1.35306560096083E-15   4.03863943315006E-15   0.00000000000000E+00   0.00000000000000E+00
      0.00000000000000E+00   0.00000000000000E+00  -1.03626784617419E-18  -6.92398173005343E-17  -7.02760851467085E-17
     -1.98524896582807E-15  -1.05000000000000E+01  -1.05000000000000E+01   0.00000000000000E+00   0.00000000000000E+00
     -2.29569096561877E-17  -1.25983260615793E-15  -1.28278951581412E-15  -2.05339046732198E-15
      2.20000000000000E-01
      8.00000000000000E-01   8.00000000000000E-01   0.00000000000000E+00   0.00000000000000E+00   1.36212308271395E-15
     -2.02429116913819E-17   1.34188017102257E-15   4.02793592887236E-15   0.00000000000000E+00   0.00000000000000E+00
      0.00000000000000E+00   0.00000000000000E+00  -1.03626360255682E-18  -6.49279256912180E-17  -6.59641892937748E-17
     -1.96602021986265E-15  -1.10000000000000E+01  -1.10000000000000E+01   0.00000000000000E+00   0.00000000000000E+00
     -2.29571999121310E-17  -1.25295878181666E-15  -1.27591598172879E-15  -2.06191570900972E-15
      2.30000000000000E-01
      8.00000000000000E-01   8.00000000000000E-01   0.00000000000000E+00   0.00000000000000E+00   1.36406346158294E-15
     -1.64763221424571E-17   1.34758713944049E-15   4.01680213658406E-15   0.00000000000000E+00   0.00000000000000E+00
      0.00000000000000E+00   0.00000000000000E+00  -1.03625930782179E-18  -5.25620711480382E-17  -5.35983304558600E-17
     -1.94614453912346E-15  -1.15000000000000E+01  -1.15000000000000E+01   0.00000000000000E+00   0.00000000000000E+00
     -2.29574980189180E-17  -1.27103131096571E-15  -1.29398880898462E-15  -2.07065759746060E-15
      2.40000000000000E-01
      8.00000000000000E-01   8.00000000000000E-01   0.00000000000000E+00   0.00000000000000E+00   1.36590435199775E-15
     -2.82935215385518E-17   1.33761083045920E-15   4.00520085313786E-15   0.00000000000000E+00   0.00000000000000E+00
      0.00000000000000E+00   0.00000000000000E+00  -1.03625496284492E-18  -1.22061866651401E-17  -1.32424416279850E-17
     -1.92558752038731E-15  -1.20000000000000E+01  -1.20000000000000E+01   0.00000000000000E+00   0.00000000000000E+00
     -2.29578039109788E-17  -1.30141058492023E-15  -1.32436838883121E-15  -2.07961333275056E-15
      2.50000000000000E-01
      8.00000000000000E-01   8.00000000000000E-01   0.00000000000000E+00   0.00000000000000E+00   1.36767117377167E-15
     -1.19275635884689E-17   1.35574361018320E-15   3.99310659356386E-15   0.00000000000000E+00   0.00000000000000E+00
      0.00000000000000E+00   0.00000000000000E+00  -1.03625056980116E-18   1.24268070390237E-16   1.23231819820436E-16
     -1.90432591907542E-15  -1.25000000000000E+01  -1.25000000000000E+01   0.00000000000000E+00   0.00000000000000E+00
     -2.29581175420962E-17  -1.45601731246154E-15  -1.47897543000363E-15  -2.08878067448844E-15
      2.60000000000000E-01
      8.00000000000000E-01   8.00000000000000E-01   0.00000000000000E+00   0.00000000000000E+00   1.36937074805573E-15
      3.79696919674575E-17   1.40734044002319E-15   3.98053652872183E-15   0.00000000000000E+00   0.00000000000000E+00
      0.00000000000000E+00   0.00000000000000E+00  -1.03624613421351E-18   5.84943669264963E-16   5.83907423130749E-16
     -1.88237773623754E-15  -1.30000000000000E+01  -1.30000000000000E+01   0.00000000000000E+00   0.00000000000000E+00
     -2.29584389147220E-17  -1.96828942423922E-15  -1.99124786315394E-15  -2.09815879248428E-15
      2.70000000000000E-01
      8.00000000000000E-01   8.00000000000000E-01   0.00000000000000E+00   0.00000000000000E+00   1.37098452369279E-15
     -1.29404437358955E-17   1.35804407995689E-15   3.96757889096905E-15   0.00000000000000E+00   0.00000000000000E+00
      0.00000000000000E+00   0.00000000000000E+00  -1.03624166630981E-18   2.11253724239253E-15   2.11150100072622E-15
     -1.85982993815132E-15  -1.35000000000000E+01  -1.35000000000000E+01   0.00000000000000E+00   0.00000000000000E+00
     -2.29587681039205E-17  -3.44658631257919E-15  -3.46954508068311E-15  -2.10774895281773E-15
      2.80000000000000E-01
      8.00000000000000E-01   8.00000000000000E-01   0.00000000000000E+00   0.00000000000000E+00   1.37247046250896E-15
      9.88181243135656E-18   1.38235227494031E-15   3.95438186257077E-15   0.00000000000000E+00   0.00000000000000E+00
      0.00000000000000E+00   0.00000000000000E+00  -1.03623717932075E-18   7.04753478400356E-15   7.04649854682424E-15
     -1.83682781852691E-15  -1.40000000000000E+01  -1.40000000000000E+01   0.00000000000000E+00   0.00000000000000E+00
     -2.29591052416835E-17  -8.40589171652289E-15  -8.42885082176457E-15  -2.11755404404386E-15
      2.90000000000000E-01
      8.00000000000000E-01   8.00000000000000E-01   0.00000000000000E+00   0.00000000000000E+00   1.37377246376359E-15
      3.26649481695250E-17   1.40643741193312E-15   3.94110196095850E-15   0.00000000000000E+00   0.00000000000000E+00
      0.00000000000000E+00   0.00000000000000E+00  -1.03623268519668E-18   2.25032828980744E-14   2.25022466653892E-14
     -1.81352490864208E-15  -1.45000000000000E+01  -1.45000000000000E+01   0.00000000000000E+00   0.00000000000000E+00
     -2.29594504648465E-17  -2.38857246268576E-14  -2.39086840773224E-14  -2.12757705231642E-15
      3.00000000000000E-01
      8.00000000000000E-01   8.00000000000000E-01   0.00000000000000E+00   0.00000000000000E+00   1.37482338180384E-15
     -1.02732596907828E-17   1.36455012211306E-15   3.92786140946129E-15   0.00000000000000E+00   0.00000000000000E+00
      0.00000000000000E+00   0.00000000000000E+00  -1.03622819038598E-18   6.92937549945795E-14   6.92927187663891E-14
     -1.79004150319116E-15  -1.50000000000000E+01  -1.50000000000000E+01   0.00000000000000E+00   0.00000000000000E+00
     -2.29598038752606E-17  -7.06343090846271E-14  -7.06572688885023E-14  -2.13781990627013E-15
      3.10000000000000E-01
      8.00000000000000E-01   8.00000000000000E-01   0.00000000000000E+00   0.00000000000000E+00   1.37552944274242E-15
     -9.07930248257076E-18   1.36645014025985E-15   3.91474061936036E-15   0.00000000000000E+00   0.00000000000000E+00
      0.00000000000000E+00   0.00000000000000E+00  -1.03622368885347E-18   2.05983520651080E-13   2.05982484427392E-13
     -1.76645728501083E-15  -1.55000000000000E+01  -1.55000000000000E+01   0.00000000000000E+00   0.00000000000000E+00
     -2.29601655345688E-17  -2.07325974402117E-13  -2.07348934567652E-13  -2.14828333434955E-15
      3.20000000000000E-01
      8.00000000000000E-01   8.00000000000000E-01   0.00000000000000E+00   0.00000000000000E+00   1.37572595956804E-15
     -4.88007196604369E-18   1.37084588760199E-15   3.90179018744569E-15   0.00000000000000E+00   0.00000000000000E+00
      0.00000000000000E+00   0.00000000000000E+00  -1.03621898119472E-18   5.90837638058558E-13   5.90836601839577E-13
     -1.74282293615048E-15  -1.60000000000000E+01  -1.60000000000000E+01   0.00000000000000E+00   0.00000000000000E+00
     -2.29605354772518E-17  -5.92184487191700E-13  -5.92207447727177E-13  -2.15896725129521E-15
      3.30000000000000E-01
      8.00000000000000E-01   8.00000000000000E-01   0.00000000000000E+00   0.00000000000000E+00   1.37507696092050E-15
     -2.22652109149130E-17   1.35281175000559E-15   3.88904470564694E-15   0.00000000000000E+00   0.00000000000000E+00
      0.00000000000000E+00   0.00000000000000E+00  -1.03621358778635E-18   1.63404782538042E-12   1.63404678916684E-12
     -1.71917349523437E-15  -1.65000000000000E+01  -1.65000000000000E+01   0.00000000000000E+00   0.00000000000000E+00
     -2.29609137261087E-17  -1.63537664000312E-12  -1.63539960091684E-12  -2.16987121041257E-15
      3.40000000000000E-01
      8.00000000000000E-01   8.00000000000000E-01   0.00000000000000E+00   0.00000000000000E+00   1.37285699134767E-15
      1.66508993163851E-17   1.38950789066406E-15   3.87653299340699E-15   0.00000000000000E+00   0.00000000000000E+00
      0.00000000000000E+00   0.00000000000000E+00  -1.03620859228073E-18   4.35344656936305E-12   4.35344553315446E-12
     -1.69553814831431E-15  -1.70000000000000E+01  -1.70000000000000E+01   0.00000000000000E+00   0.00000000000000E+00
     -2.29613003075559E-17  -4.35481207974480E-12  -4.35483504104511E-12  -2.18099484509268E-15
      3.50000000000000E-01
      8.00000000000000E-01   8.00000000000000E-01   0.00000000000000E+00   0.00000000000000E+00   1.36751872775039E-15
     -3.36124822387888E-18   1.36415747952651E-15   3.86428559737453E-15   0.00000000000000E+00   0.00000000000000E+00
      0.00000000000000E+00   0.00000000000000E+00  -1.03620079701454E-18   1.11614076072868E-11   1.11614065710860E-11
     -1.67194715093805E-15  -1.75000000000000E+01  -1.75000000000000E+01   0.00000000000000E+00   0.00000000000000E+00
     -2.29616952719045E-17  -1.11627477668703E-11  -1.11627707285656E-11  -2.19233844643650E-15
      3.60000000000000E-01
      8.00000000000000E-01   8.00000000000000E-01   0.00000000000000E+00   0.00000000000000E+00   1.35596950805880E-15
     -9.76486016711765E-18   1.34620464789168E-15   3.85234164020334E-15   0.00000000000000E+00   0.00000000000000E+00