DF-ISE text

Info {
  version   = 1.0
  type      = xyplot
  datasets  = [
    "time"
    "Ntop OuterVoltage" "Ntop InnerVoltage" "Ntop QuasiFermiPotential" "Ntop DisplacementCurrent" "Ntop eCurrent"
    "Ntop hCurrent" "Ntop TotalCurrent" "Ntop Charge" "Ptop OuterVoltage" "Ptop InnerVoltage"
    "Ptop QuasiFermiPotential" "Ptop DisplacementCurrent" "Ptop eCurrent" "Ptop hCurrent" "Ptop TotalCurrent"
    "Ptop Charge" "Pbot OuterVoltage" "Pbot InnerVoltage" "Pbot QuasiFermiPotential" "Pbot DisplacementCurrent"
    "Pbot eCurrent" "Pbot hCurrent" "Pbot TotalCurrent" "Pbot Charge" ]
  functions = [
    Time
    OuterVoltage InnerVoltage QuasiFermiPotential DisplacementCurrent eCurrent
    hCurrent TotalCurrent Charge OuterVoltage InnerVoltage
    QuasiFermiPotential DisplacementCurrent eCurrent hCurrent TotalCurrent
    Charge OuterVoltage InnerVoltage QuasiFermiPotential DisplacementCurrent
    eCurrent hCurrent TotalCurrent Charge ]
}

Data {
      0.00000000000000E+00
      0.00000000000000E+00   0.00000000000000E+00   0.00000000000000E+00   0.00000000000000E+00  -1.65721637460619E-25
     -4.47467103720041E-18  -4.47467120292205E-18   3.18685387687569E-15   0.00000000000000E+00   0.00000000000000E+00
      0.00000000000000E+00   0.00000000000000E+00   1.65688653187681E-25   8.56094356331757E-20   8.56096013218288E-20
     -1.26915069584519E-15   0.00000000000000E+00   0.00000000000000E+00   0.00000000000000E+00   0.00000000000000E+00
      3.29794712422758E-29   4.38906160156724E-18   4.38906160160022E-18  -1.91770318103050E-15
      0.00000000000000E+00
      0.00000000000000E+00   0.00000000000000E+00   0.00000000000000E+00   0.00000000000000E+00  -2.42644602535509E-27
      9.46893667577698E-19   9.46893665151252E-19   3.18685387697907E-15   0.00000000000000E+00   0.00000000000000E+00
      0.00000000000000E+00   0.00000000000000E+00   2.42716134016402E-27  -2.31520855166548E-22  -2.31518428005208E-22
     -1.26915069584520E-15   0.00000000000000E+00   0.00000000000000E+00   0.00000000000000E+00   0.00000000000000E+00
     -2.35612052906186E-31  -9.46662146723012E-19  -9.46662146723247E-19  -1.91770318113387E-15
      1.00000000000000E-01
      8.00000000000000E-02   8.00000000000000E-02   0.00000000000000E+00   0.00000000000000E+00   1.48972814719017E-16
      1.52192738280375E-19   1.49125007457298E-16   3.29097755907054E-15   0.00000000000000E+00   0.00000000000000E+00
      0.00000000000000E+00   0.00000000000000E+00  -9.93421745476823E-19  -1.28652799979466E-17  -1.38587017434234E-17
     -1.37253158054761E-15   0.00000000000000E+00   0.00000000000000E+00   0.00000000000000E+00   0.00000000000000E+00
     -2.28396109802085E-17  -1.12426694733666E-16  -1.35266305713874E-16  -1.91844597852293E-15
      2.00000000000000E-01
      1.60000000000000E-01   1.60000000000000E-01   0.00000000000000E+00   0.00000000000000E+00   2.13826495100569E-16
      1.85125857934974E-19   2.14011620958504E-16   3.39311640746405E-15   0.00000000000000E+00   0.00000000000000E+00
      0.00000000000000E+00   0.00000000000000E+00  -1.03467416656831E-18  -1.99805775361150E-17  -2.10152517026834E-17
     -1.47392794110432E-15   0.00000000000000E+00   0.00000000000000E+00   0.00000000000000E+00   0.00000000000000E+00
     -2.29524633394696E-17  -1.70043905916351E-16  -1.92996369255821E-16  -1.91918846635973E-15
      3.00000000000000E-01
      2.40000000000000E-01   2.40000000000000E-01   0.00000000000000E+00   0.00000000000000E+00   2.66430779697482E-16
      9.62435226708380E-20   2.66527023220153E-16   3.49345610617197E-15   0.00000000000000E+00   0.00000000000000E+00
      0.00000000000000E+00   0.00000000000000E+00  -1.03622204476562E-18  -2.61296181492381E-17  -2.71658401940038E-17
     -1.57352523290244E-15   0.00000000000000E+00   0.00000000000000E+00   0.00000000000000E+00   0.00000000000000E+00
     -2.29524423937244E-17  -2.16408740632425E-16  -2.39361183026149E-16  -1.91993087326953E-15
      4.00000000000000E-01
      3.20000000000000E-01   3.20000000000000E-01   0.00000000000000E+00   0.00000000000000E+00   3.13085985018764E-16
     -3.90370275453082E-19   3.12695614743311E-16   3.59201971397189E-15   0.00000000000000E+00   0.00000000000000E+00
      0.00000000000000E+00   0.00000000000000E+00  -1.03627688938761E-18  -3.18391784137994E-17  -3.28754553031870E-17
     -1.67134649828210E-15   0.00000000000000E+00   0.00000000000000E+00   0.00000000000000E+00   0.00000000000000E+00
     -2.29524636556212E-17  -2.56867695784503E-16  -2.79820159440124E-16  -1.92067321568979E-15
      5.00000000000000E-01
      4.00000000000000E-01   4.00000000000000E-01   0.00000000000000E+00   0.00000000000000E+00   3.55886067806507E-16
      6.56960034200014E-19   3.56543027840707E-16   3.68877097973444E-15   0.00000000000000E+00   0.00000000000000E+00
      0.00000000000000E+00   0.00000000000000E+00  -1.03628672586290E-18  -3.72392494407180E-17  -3.82755361665808E-17
     -1.76735555086610E-15   0.00000000000000E+00   0.00000000000000E+00   0.00000000000000E+00   0.00000000000000E+00
     -2.29524876671461E-17  -2.95315004006980E-16  -3.18267491674126E-16  -1.92141542886834E-15
      6.00000000000000E-01
      4.80000000000000E-01   4.80000000000000E-01   0.00000000000000E+00   0.00000000000000E+00   3.95931694613521E-16
      8.21420291872940E-19   3.96753114905394E-16   3.78365876230085E-15   0.00000000000000E+00   0.00000000000000E+00
      0.00000000000000E+00   0.00000000000000E+00  -1.03629544225031E-18  -4.23475530363030E-17  -4.33838484785533E-17
     -1.86150133603136E-15   0.00000000000000E+00   0.00000000000000E+00   0.00000000000000E+00   0.00000000000000E+00
     -2.29525117995279E-17  -3.30416754627313E-16  -3.53369266426840E-16  -1.92215742626950E-15
      7.00000000000000E-01
      5.60000000000000E-01   5.60000000000000E-01   0.00000000000000E+00   0.00000000000000E+00   4.33840917162164E-16
      4.28476822159796E-19   4.34269393984324E-16   3.87662224472742E-15   0.00000000000000E+00   0.00000000000000E+00
      0.00000000000000E+00   0.00000000000000E+00  -1.03630365082666E-18  -4.72147870370270E-17  -4.82510906878537E-17
     -1.95372312043980E-15   0.00000000000000E+00   0.00000000000000E+00   0.00000000000000E+00   0.00000000000000E+00
     -2.29525359631229E-17  -3.63065767333347E-16  -3.86018303296470E-16  -1.92289912428762E-15
      8.00000000000000E-01
      6.40000000000000E-01   6.40000000000000E-01   0.00000000000000E+00   0.00000000000000E+00   4.69967160633493E-16
      5.89225697736515E-19   4.70556386331229E-16   3.96757889697172E-15   0.00000000000000E+00   0.00000000000000E+00
      0.00000000000000E+00   0.00000000000000E+00  -1.03631152334968E-18  -5.19607350089563E-17  -5.29970465323060E-17
     -2.04393844665362E-15   0.00000000000000E+00   0.00000000000000E+00   0.00000000000000E+00   0.00000000000000E+00
     -2.29525601477732E-17  -3.94606779651150E-16  -4.17559339798923E-16  -1.92364045031810E-15
      9.00000000000000E-01
      7.20000000000000E-01   7.20000000000000E-01   0.00000000000000E+00   0.00000000000000E+00   5.04581495632803E-16
      5.65076383812016E-19   5.05146572016615E-16   4.05641427712851E-15   0.00000000000000E+00   0.00000000000000E+00
      0.00000000000000E+00   0.00000000000000E+00  -1.03631891047807E-18  -5.67096002368942E-17  -5.77459191473722E-17
     -2.13203293504194E-15   0.00000000000000E+00   0.00000000000000E+00   0.00000000000000E+00   0.00000000000000E+00
     -2.29525843475304E-17  -4.24448068521712E-16  -4.47400652869242E-16  -1.92438134208656E-15
      1.00000000000000E+00
      8.00000000000000E-01   8.00000000000000E-01   0.00000000000000E+00   0.00000000000000E+00   5.37940987437810E-16
      2.28741983102602E-19   5.38169729420913E-16   4.14299539951265E-15   0.00000000000000E+00   0.00000000000000E+00
      0.00000000000000E+00   0.00000000000000E+00  -1.03632569256339E-18  -6.16018169571431E-17  -6.26381426497065E-17
     -2.21787365914510E-15   0.00000000000000E+00   0.00000000000000E+00   0.00000000000000E+00   0.00000000000000E+00
     -2.29526085573864E-17  -4.52578978213820E-16  -4.75531586771206E-16  -1.92512174036754E-15
      0.00000000000000E+00
      8.00000000000000E-01   8.00000000000000E-01   0.00000000000000E+00   0.00000000000000E+00   5.37940987488277E-16
      5.20075029157524E-19   5.38461062517434E-16   4.14299539951265E-15   0.00000000000000E+00   0.00000000000000E+00
      0.00000000000000E+00   0.00000000000000E+00  -1.03632574303152E-18  -6.16026982978538E-17  -6.26390240408853E-17
     -2.21787365914510E-15   0.00000000000000E+00   0.00000000000000E+00   0.00000000000000E+00   0.00000000000000E+00
     -2.29526085573864E-17  -4.52869429919162E-16  -4.75822038476549E-16  -1.92512174036754E-15
      1.00000000000000E-02
      8.00000000000000E-01   8.00000000000000E-01   0.00000000000000E+00   0.00000000000000E+00   6.92557293722033E-16
     -5.11194376157718E-18   6.87445349960456E-16   4.14759947824766E-15   0.00000000000000E+00   0.00000000000000E+00
      0.00000000000000E+00   0.00000000000000E+00  -1.03632573858207E-18  -6.10369403568276E-17  -6.20732660954097E-17
     -2.21786125171529E-15  -5.00000000000000E-01  -5.00000000000000E-01   0.00000000000000E+00   0.00000000000000E+00
     -2.29527595491496E-17  -6.02419324315897E-16  -6.25372083865047E-16  -1.92973822653236E-15
      2.00000000000000E-02
      8.00000000000000E-01   8.00000000000000E-01   0.00000000000000E+00   0.00000000000000E+00   8.20923425397764E-16
     -4.19043007079902E-19   8.20504382390684E-16   4.15214264522085E-15   0.00000000000000E+00   0.00000000000000E+00
      0.00000000000000E+00   0.00000000000000E+00  -1.03632571850211E-18  -6.06372750340311E-17  -6.16736007525332E-17
     -2.21780526592145E-15  -1.00000000000000E+00  -1.00000000000000E+00   0.00000000000000E+00   0.00000000000000E+00
     -2.29529114203182E-17  -7.35877870217833E-16  -7.58830781638151E-16  -1.93433737929940E-15
      3.00000000000000E-02
      8.00000000000000E-01   8.00000000000000E-01   0.00000000000000E+00   0.00000000000000E+00   9.31467261821281E-16
     -1.62767552099261E-18   9.29839586300289E-16   4.15653234919945E-15   0.00000000000000E+00   0.00000000000000E+00
      0.00000000000000E+00   0.00000000000000E+00  -1.03632564506158E-18  -6.03964517471227E-17  -6.14327773921843E-17
     -2.21760052477722E-15  -1.50000000000000E+00  -1.50000000000000E+00   0.00000000000000E+00   0.00000000000000E+00
     -2.29530631436846E-17  -8.45453745764421E-16  -8.68406808908105E-16  -1.93893182442223E-15
      4.00000000000000E-02
      8.00000000000000E-01   8.00000000000000E-01   0.00000000000000E+00   0.00000000000000E+00   1.02307184931798E-15
     -1.40784759794098E-18   1.02166400172004E-15   4.16056531173022E-15   0.00000000000000E+00   0.00000000000000E+00
      0.00000000000000E+00   0.00000000000000E+00  -1.03632542883783E-18  -6.03409242362942E-17  -6.13772496651320E-17
     -2.21699743171810E-15  -2.00000000000000E+00  -2.00000000000000E+00   0.00000000000000E+00   0.00000000000000E+00
     -2.29532165953591E-17  -9.37333535459549E-16  -9.60286752054908E-16  -1.94356788001212E-15
      5.00000000000000E-02
      8.00000000000000E-01   8.00000000000000E-01   0.00000000000000E+00   0.00000000000000E+00   1.09566068123405E-15
      8.09096865915523E-19   1.09646977809997E-15   4.16386485490952E-15   0.00000000000000E+00   0.00000000000000E+00
      0.00000000000000E+00   0.00000000000000E+00  -1.03632491364278E-18  -6.05217022507794E-17  -6.15580271644222E-17
     -2.21555656541353E-15  -2.50000000000000E+00  -2.50000000000000E+00   0.00000000000000E+00   0.00000000000000E+00
     -2.29533738140481E-17  -1.01195837712150E-15  -1.03491175093555E-15  -1.94830828949598E-15
      6.00000000000000E-02
      8.00000000000000E-01   8.00000000000000E-01   0.00000000000000E+00   0.00000000000000E+00   1.15320217316294E-15
      4.23795767845994E-19   1.15362596893079E-15   4.16592926398934E-15   0.00000000000000E+00   0.00000000000000E+00
      0.00000000000000E+00   0.00000000000000E+00  -1.03632390894811E-18  -6.10502937919773E-17  -6.20866177009254E-17
     -2.21272499619823E-15  -3.00000000000000E+00  -3.00000000000000E+00   0.00000000000000E+00   0.00000000000000E+00
     -2.29535364848776E-17  -1.06858581474498E-15  -1.09153935122986E-15  -1.95320426779110E-15
      7.00000000000000E-02
      8.00000000000000E-01   8.00000000000000E-01   0.00000000000000E+00   0.00000000000000E+00   1.19874201321295E-15
      2.35975453192514E-18   1.20110176774488E-15   4.16636495505434E-15   0.00000000000000E+00   0.00000000000000E+00
      0.00000000000000E+00   0.00000000000000E+00  -1.03632228560124E-18  -6.20749238833318E-17  -6.31112461689330E-17
     -2.20807313933105E-15  -3.50000000000000E+00  -3.50000000000000E+00   0.00000000000000E+00   0.00000000000000E+00
     -2.29537058048775E-17  -1.11503681577107E-15  -1.13799052157594E-15  -1.95829181572330E-15
      8.00000000000000E-02
      8.00000000000000E-01   8.00000000000000E-01   0.00000000000000E+00   0.00000000000000E+00   1.23401411885486E-15
     -1.27412852332999E-18   1.23273999033153E-15   4.16513941766197E-15   0.00000000000000E+00   0.00000000000000E+00
      0.00000000000000E+00   0.00000000000000E+00  -1.03632006654425E-18  -6.37750141340340E-17  -6.48113342005782E-17
     -2.20154529409694E-15  -4.00000000000000E+00  -4.00000000000000E+00   0.00000000000000E+00   0.00000000000000E+00
     -2.29538825553247E-17  -1.14497477357562E-15  -1.16792865613095E-15  -1.96359412356504E-15
      9.00000000000000E-02
      8.00000000000000E-01   8.00000000000000E-01   0.00000000000000E+00   0.00000000000000E+00   1.26194568179661E-15
      9.62273736396279E-18   1.27156841916058E-15   4.16255327218719E-15   0.00000000000000E+00   0.00000000000000E+00
      0.00000000000000E+00   0.00000000000000E+00  -1.03631739412601E-18  -6.62104350977512E-17  -6.72467524918772E-17
     -2.19342646314092E-15  -4.50000000000000E+00  -4.50000000000000E+00   0.00000000000000E+00   0.00000000000000E+00
     -2.29540672717622E-17  -1.18136759939693E-15  -1.20432166666870E-15  -1.96912680904627E-15
      1.00000000000000E-01
      8.00000000000000E-01   8.00000000000000E-01   0.00000000000000E+00   0.00000000000000E+00   1.28403012460679E-15
     -4.27067094093598E-18   1.27975945366586E-15   4.15896130737377E-15   0.00000000000000E+00   0.00000000000000E+00
      0.00000000000000E+00   0.00000000000000E+00  -1.03631441319663E-18  -6.90655756279828E-17  -7.01018900411794E-17
     -2.18406201079281E-15  -5.00000000000000E+00  -5.00000000000000E+00   0.00000000000000E+00   0.00000000000000E+00
     -2.29542602874639E-17  -1.18670330333721E-15  -1.20965756362468E-15  -1.97489929658096E-15
      1.10000000000000E-01
      8.00000000000000E-01   8.00000000000000E-01   0.00000000000000E+00   0.00000000000000E+00   1.30087486060479E-15
      3.79572386322272E-18   1.30467058446802E-15   4.15461513196196E-15   0.00000000000000E+00   0.00000000000000E+00
      0.00000000000000E+00   0.00000000000000E+00  -1.03631121852704E-18  -7.15041031583860E-17  -7.25404143769130E-17
     -2.17369940244361E-15  -5.50000000000000E+00  -5.50000000000000E+00   0.00000000000000E+00   0.00000000000000E+00
     -2.29544617620860E-17  -1.20917570832902E-15  -1.23213017009110E-15  -1.98091572951835E-15
      1.20000000000000E-01
      8.00000000000000E-01   8.00000000000000E-01   0.00000000000000E+00   0.00000000000000E+00   1.31325563157098E-15
     -6.29300484326651E-18   1.30696262672771E-15   4.14966611716824E-15   0.00000000000000E+00   0.00000000000000E+00
      0.00000000000000E+00   0.00000000000000E+00  -1.03630786407204E-18  -7.30320578355427E-17  -7.40683656996147E-17
     -2.16248925853875E-15  -6.00000000000000E+00  -6.00000000000000E+00   0.00000000000000E+00   0.00000000000000E+00
     -2.29546717435464E-17  -1.20993958928455E-15  -1.23289426102810E-15  -1.98717685862948E-15
      1.30000000000000E-01
      8.00000000000000E-01   8.00000000000000E-01   0.00000000000000E+00   0.00000000000000E+00   1.32252403940448E-15
     -5.18672901073726E-18   1.31733731039374E-15   4.14420390428449E-15   0.00000000000000E+00   0.00000000000000E+00
      0.00000000000000E+00   0.00000000000000E+00  -1.03630438094791E-18  -7.37789288518611E-17  -7.48152332328090E-17
     -2.15052230752277E-15  -6.50000000000000E+00  -6.50000000000000E+00   0.00000000000000E+00   0.00000000000000E+00
     -2.29548902193422E-17  -1.21956718694159E-15  -1.24252207716094E-15  -1.99368159676172E-15
      1.40000000000000E-01
      8.00000000000000E-01   8.00000000000000E-01   0.00000000000000E+00   0.00000000000000E+00   1.32982494020674E-15
     -1.14586281729399E-17   1.31836631203380E-15   4.13828375480522E-15   0.00000000000000E+00   0.00000000000000E+00
      0.00000000000000E+00   0.00000000000000E+00  -1.03630078849321E-18  -7.40222409430301E-17  -7.50585417315234E-17
     -2.13785582941709E-15  -7.00000000000000E+00  -7.00000000000000E+00   0.00000000000000E+00   0.00000000000000E+00
     -2.29551171465405E-17  -1.22035265315573E-15  -1.24330777030228E-15  -2.00042792538814E-15
      1.50000000000000E-01
      8.00000000000000E-01   8.00000000000000E-01   0.00000000000000E+00   0.00000000000000E+00   1.33583014141552E-15
      8.51990919500410E-19   1.33668213233502E-15   4.13194156541036E-15   0.00000000000000E+00   0.00000000000000E+00
      0.00000000000000E+00   0.00000000000000E+00  -1.03629709980520E-18  -7.39748883878823E-17  -7.50111854876875E-17
     -2.12452819071517E-15  -7.50000000000000E+00  -7.50000000000000E+00   0.00000000000000E+00   0.00000000000000E+00
     -2.29553524676821E-17  -1.23871559437965E-15  -1.26167094684733E-15  -2.00741337469520E-15
      1.60000000000000E-01
      8.00000000000000E-01   8.00000000000000E-01   0.00000000000000E+00   0.00000000000000E+00   1.34089711207098E-15
     -1.06278075550905E-17   1.33026930451589E-15   4.12520178521248E-15   0.00000000000000E+00   0.00000000000000E+00
      0.00000000000000E+00   0.00000000000000E+00  -1.03629332444648E-18  -7.37256551802657E-17  -7.47619485047122E-17
     -2.11056650800828E-15  -8.00000000000000E+00  -8.00000000000000E+00   0.00000000000000E+00   0.00000000000000E+00
     -2.29555961191851E-17  -1.23255175989200E-15  -1.25550735601118E-15  -2.01463527720420E-15
      1.70000000000000E-01
      8.00000000000000E-01   8.00000000000000E-01   0.00000000000000E+00   0.00000000000000E+00   1.34523328590396E-15
     -4.97083164128595E-19   1.34473620273983E-15   4.11808167520644E-15   0.00000000000000E+00   0.00000000000000E+00
      0.00000000000000E+00   0.00000000000000E+00  -1.03628946982432E-18  -7.33361825059582E-17  -7.43724719757826E-17
     -2.09599077043430E-15  -8.50000000000000E+00  -8.50000000000000E+00   0.00000000000000E+00   0.00000000000000E+00
     -2.29558480358901E-17  -1.24740788272816E-15  -1.27036373076405E-15  -2.02209090477215E-15
      1.80000000000000E-01
      8.00000000000000E-01   8.00000000000000E-01   0.00000000000000E+00   0.00000000000000E+00   1.34898726544900E-15
      3.85514036364211E-18   1.35284240581265E-15   4.11059363219151E-15   0.00000000000000E+00   0.00000000000000E+00
      0.00000000000000E+00   0.00000000000000E+00  -1.03628554193649E-18  -7.28147517328679E-17  -7.38510372748044E-17
     -2.08081608960534E-15  -9.00000000000000E+00  -9.00000000000000E+00   0.00000000000000E+00   0.00000000000000E+00
     -2.29561081535129E-17  -1.25603526038433E-15  -1.27899136853784E-15  -2.02977754258619E-15
      1.90000000000000E-01
      8.00000000000000E-01   8.00000000000000E-01   0.00000000000000E+00   0.00000000000000E+00   1.35228516915506E-15
      8.69303429924380E-18   1.36097820345431E-15   4.10274637690983E-15   0.00000000000000E+00   0.00000000000000E+00
      0.00000000000000E+00   0.00000000000000E+00  -1.03628154579274E-18  -7.21722591720661E-17  -7.32085407178588E-17
     -2.06505385182932E-15  -9.50000000000000E+00  -9.50000000000000E+00   0.00000000000000E+00   0.00000000000000E+00
     -2.29563764098304E-17  -1.26481328632662E-15  -1.28776966273645E-15  -2.03769252508051E-15
      2.00000000000000E-01
      8.00000000000000E-01   8.00000000000000E-01   0.00000000000000E+00   0.00000000000000E+00   1.35522778494518E-15
      2.06236251378051E-18   1.35729014745896E-15   4.09454536729515E-15   0.00000000000000E+00   0.00000000000000E+00
      0.00000000000000E+00   0.00000000000000E+00  -1.03627748565289E-18  -7.13666339247251E-17  -7.24029114103779E-17
     -2.04871212205846E-15  -1.00000000000000E+01  -1.00000000000000E+01   0.00000000000000E+00   0.00000000000000E+00
     -2.29566527449796E-17  -1.26193058330360E-15  -1.28488723604858E-15  -2.04583324523669E-15
      2.10000000000000E-01
      8.00000000000000E-01   8.00000000000000E-01   0.00000000000000E+00   0.00000000000000E+00   1.35788342038083E-15
      5.56122510132401E-19   1.35843954289097E-15   4.08599260079475E-15   0.00000000000000E+00   0.00000000000000E+00
      0.00000000000000E+00   0.00000000000000E+00  -1.03627336515167E-18  -7.02459022740323E-17  -7.12821756391840E-17
     -2.03179545761845E-15  -1.05000000000000E+01  -1.05000000000000E+01   0.00000000000000E+00   0.00000000000000E+00
     -2.29569371010543E-17  -1.26420043015073E-15  -1.28715736725178E-15  -2.05419714317631E-15
      2.20000000000000E-01
      8.00000000000000E-01   8.00000000000000E-01   0.00000000000000E+00   0.00000000000000E+00   1.36031904430007E-15
     -8.99244146921403E-18   1.35132660283085E-15   4.07708589268424E-15   0.00000000000000E+00   0.00000000000000E+00
      0.00000000000000E+00   0.00000000000000E+00  -1.03626918734979E-18  -6.82533089756832E-17  -6.92895781630330E-17
     -2.01430421435595E-15  -1.10000000000000E+01  -1.10000000000000E+01   0.00000000000000E+00   0.00000000000000E+00
     -2.29572294211434E-17  -1.25907979524668E-15  -1.28203702466782E-15  -2.06278167832829E-15
      2.30000000000000E-01
      8.00000000000000E-01   8.00000000000000E-01   0.00000000000000E+00   0.00000000000000E+00   1.36259671753778E-15
      8.01052016789455E-18   1.37060723770567E-15   4.06781772520521E-15   0.00000000000000E+00   0.00000000000000E+00
      0.00000000000000E+00   0.00000000000000E+00  -1.03626495474130E-18  -6.34367381815318E-17  -6.44730031362731E-17
     -1.99623343480197E-15  -1.15000000000000E+01  -1.15000000000000E+01   0.00000000000000E+00   0.00000000000000E+00
     -2.29575296479716E-17  -1.28317670492143E-15  -1.30613423456940E-15  -2.07158429040324E-15
      2.40000000000000E-01
      8.00000000000000E-01   8.00000000000000E-01   0.00000000000000E+00   0.00000000000000E+00   1.36475458200626E-15
     -9.46515522916577E-18   1.35528942677710E-15   4.05817391199549E-15   0.00000000000000E+00   0.00000000000000E+00
      0.00000000000000E+00   0.00000000000000E+00  -1.03626066925348E-18  -4.90441794848597E-17  -5.00804401541132E-17
     -1.97757155237195E-15  -1.20000000000000E+01  -1.20000000000000E+01   0.00000000000000E+00   0.00000000000000E+00
     -2.29578377225200E-17  -1.28225114890046E-15  -1.30520898662298E-15  -2.08060235962354E-15
      2.50000000000000E-01
      8.00000000000000E-01   8.00000000000000E-01   0.00000000000000E+00   0.00000000000000E+00   1.36681770504177E-15
      6.86812949008675E-18   1.37368583453186E-15   4.04813281037764E-15   0.00000000000000E+00   0.00000000000000E+00
      0.00000000000000E+00   0.00000000000000E+00  -1.03625633230918E-18  -1.99116609750488E-18  -3.02742242981406E-18
     -1.95829961838993E-15  -1.25000000000000E+01  -1.25000000000000E+01   0.00000000000000E+00   0.00000000000000E+00
     -2.29581535834682E-17  -1.34770025851858E-15  -1.37065841210205E-15  -2.08983319198771E-15
      2.60000000000000E-01
      8.00000000000000E-01   8.00000000000000E-01   0.00000000000000E+00   0.00000000000000E+00   1.36880371906368E-15
     -2.36821072241459E-17   1.34512161183953E-15   4.03766701402704E-15   0.00000000000000E+00   0.00000000000000E+00
      0.00000000000000E+00   0.00000000000000E+00  -1.03625194510042E-18   1.55297017511223E-16   1.54260765566122E-16
     -1.93839292329115E-15  -1.30000000000000E+01  -1.30000000000000E+01   0.00000000000000E+00   0.00000000000000E+00
     -2.29584771696056E-17  -1.47642390023605E-15  -1.49938237740566E-15  -2.09927409073590E-15
      2.70000000000000E-01
      8.00000000000000E-01   8.00000000000000E-01   0.00000000000000E+00   0.00000000000000E+00   1.37072014551512E-15
      3.75144596517462E-17   1.40823460516687E-15   4.02675152657252E-15   0.00000000000000E+00   0.00000000000000E+00
      0.00000000000000E+00   0.00000000000000E+00  -1.03624750933673E-18   6.78866943327916E-16   6.77830695818580E-16
     -1.91782889586126E-15  -1.35000000000000E+01  -1.35000000000000E+01   0.00000000000000E+00   0.00000000000000E+00
     -2.29588084292391E-17  -2.06310649255621E-15  -2.08606530098545E-15  -2.10892263071126E-15
      2.80000000000000E-01
      8.00000000000000E-01   8.00000000000000E-01   0.00000000000000E+00   0.00000000000000E+00   1.37255877075287E-15
      1.61953187856192E-17   1.38875408953849E-15   4.01538318269174E-15   0.00000000000000E+00   0.00000000000000E+00
      0.00000000000000E+00   0.00000000000000E+00  -1.03624302868881E-18   2.39525797219649E-15   2.39422172916781E-15
     -1.89660592760193E-15  -1.40000000000000E+01  -1.40000000000000E+01   0.00000000000000E+00   0.00000000000000E+00
     -2.29591473407731E-17  -3.76001667136552E-15  -3.78297581870630E-15  -2.11877725508980E-15
      2.90000000000000E-01
      8.00000000000000E-01   8.00000000000000E-01   0.00000000000000E+00   0.00000000000000E+00   1.37428985098638E-15
     -1.87425020179308E-17   1.35554734896845E-15   4.00360796544833E-15   0.00000000000000E+00   0.00000000000000E+00
      0.00000000000000E+00   0.00000000000000E+00  -1.03623851042395E-18   7.90350758380592E-15   7.90247134529550E-15
     -1.87476992088781E-15  -1.45000000000000E+01  -1.45000000000000E+01   0.00000000000000E+00   0.00000000000000E+00
     -2.29594939394838E-17  -9.23505920032444E-15  -9.25801869426393E-15  -2.12883804456052E-15
      3.00000000000000E-01
      8.00000000000000E-01   8.00000000000000E-01   0.00000000000000E+00   0.00000000000000E+00   1.37585990478561E-15
     -5.69142929741058E-18   1.37016847548820E-15   3.99153343202206E-15   0.00000000000000E+00   0.00000000000000E+00
      0.00000000000000E+00   0.00000000000000E+00  -1.03623396532443E-18   2.51202776847652E-14   2.51192414507999E-14
     -1.85242647907671E-15  -1.50000000000000E+01  -1.50000000000000E+01   0.00000000000000E+00   0.00000000000000E+00
     -2.29598483261332E-17  -2.64664500779619E-14  -2.64894099262880E-14  -2.13910695294534E-15
      3.10000000000000E-01
      8.00000000000000E-01   8.00000000000000E-01   0.00000000000000E+00   0.00000000000000E+00   1.37719223404415E-15
      1.04386159813616E-17   1.38763085002551E-15   3.97930348803506E-15   0.00000000000000E+00   0.00000000000000E+00
      0.00000000000000E+00   0.00000000000000E+00  -1.03622940383115E-18   7.72999892923697E-14   7.72989530629658E-14
     -1.82971657550513E-15  -1.55000000000000E+01  -1.55000000000000E+01   0.00000000000000E+00   0.00000000000000E+00
     -2.29602106365857E-17  -7.86636237023550E-14  -7.86865839129915E-14  -2.14958691252993E-15
      3.20000000000000E-01
      8.00000000000000E-01   8.00000000000000E-01   0.00000000000000E+00   0.00000000000000E+00   1.37817707753397E-15
     -6.11271649151411E-19   1.37756580588482E-15   3.96705402040144E-15   0.00000000000000E+00   0.00000000000000E+00
      0.00000000000000E+00   0.00000000000000E+00  -1.03622482678343E-18   2.30134382674624E-13   2.30133346449798E-13
     -1.80677354109231E-15  -1.60000000000000E+01  -1.60000000000000E+01   0.00000000000000E+00   0.00000000000000E+00
     -2.29605809951827E-17  -2.31487951674687E-13  -2.31510912255682E-13  -2.16028047930913E-15
      3.30000000000000E-01
      8.00000000000000E-01   8.00000000000000E-01   0.00000000000000E+00   0.00000000000000E+00   1.37862890174720E-15
     -4.63640530844883E-17   1.33226484866271E-15   3.95488765607814E-15   0.00000000000000E+00   0.00000000000000E+00
      0.00000000000000E+00   0.00000000000000E+00  -1.03622020069144E-18   6.61777756529549E-13   6.61776720309349E-13
     -1.78369849847935E-15  -1.65000000000000E+01  -1.65000000000000E+01   0.00000000000000E+00   0.00000000000000E+00
     -2.29609594911997E-17  -6.63086024198522E-13  -6.63108985158013E-13  -2.17118915759879E-15
      3.40000000000000E-01
      8.00000000000000E-01   8.00000000000000E-01   0.00000000000000E+00   0.00000000000000E+00   1.37817658285307E-15
      7.50800607286993E-18   1.38568458892594E-15   3.94287487723127E-15   0.00000000000000E+00   0.00000000000000E+00
      0.00000000000000E+00   0.00000000000000E+00  -1.03621473268621E-18   1.83529823237750E-12   1.83529719616277E-12
     -1.76056131440925E-15  -1.70000000000000E+01  -1.70000000000000E+01   0.00000000000000E+00   0.00000000000000E+00
     -2.29613461842338E-17  -1.83665991940551E-12  -1.83668288075170E-12  -2.18231356282201E-15
      3.50000000000000E-01
      8.00000000000000E-01   8.00000000000000E-01   0.00000000000000E+00   0.00000000000000E+00   1.37602315272883E-15
     -8.97607025198849E-18   1.36704708247684E-15   3.93106629054897E-15   0.00000000000000E+00   0.00000000000000E+00
      0.00000000000000E+00   0.00000000000000E+00  -1.03620962088966E-18   4.90200985157591E-12   4.90200881536629E-12
     -1.73741229349670E-15  -1.75000000000000E+01  -1.75000000000000E+01   0.00000000000000E+00   0.00000000000000E+00
     -2.29617411240416E-17  -4.90335290070763E-12  -4.90337586244876E-12  -2.19365399705227E-15
      3.60000000000000E-01
      8.00000000000000E-01   8.00000000000000E-01   0.00000000000000E+00   0.00000000000000E+00   1.37047856993297E-15
      2.04560440613344E-17   1.39093461399430E-15   3.91950529618498E-15   0.00000000000000E+00   0.00000000000000E+00