DF-ISE text

Info {
  version   = 1.0
  type      = xyplot
  datasets  = [
    "time"
    "Ntop OuterVoltage" "Ntop InnerVoltage" "Ntop QuasiFermiPotential" "Ntop DisplacementCurrent" "Ntop eCurrent"
    "Ntop hCurrent" "Ntop TotalCurrent" "Ntop Charge" "Ptop OuterVoltage" "Ptop InnerVoltage"
    "Ptop QuasiFermiPotential" "Ptop DisplacementCurrent" "Ptop eCurrent" "Ptop hCurrent" "Ptop TotalCurrent"
    "Ptop Charge" "Pbot OuterVoltage" "Pbot InnerVoltage" "Pbot QuasiFermiPotential" "Pbot DisplacementCurrent"
    "Pbot eCurrent" "Pbot hCurrent" "Pbot TotalCurrent" "Pbot Charge" ]
  functions = [
    Time
    OuterVoltage InnerVoltage QuasiFermiPotential DisplacementCurrent eCurrent
    hCurrent TotalCurrent Charge OuterVoltage InnerVoltage
    QuasiFermiPotential DisplacementCurrent eCurrent hCurrent TotalCurrent
    Charge OuterVoltage InnerVoltage QuasiFermiPotential DisplacementCurrent
    eCurrent hCurrent TotalCurrent Charge ]
}

Data {
      0.00000000000000E+00
      0.00000000000000E+00   0.00000000000000E+00   0.00000000000000E+00   0.00000000000000E+00   4.46421224252784E-27
     -4.43828786791066E-18  -4.43828786344645E-18   4.88160351570350E-15   0.00000000000000E+00   0.00000000000000E+00
      0.00000000000000E+00   0.00000000000000E+00  -4.46256564367761E-27   1.35288099033638E-19   1.35288094571073E-19
     -2.96390033467307E-15   0.00000000000000E+00   0.00000000000000E+00   0.00000000000000E+00   0.00000000000000E+00
     -1.65025053954608E-30   4.30299976887702E-18   4.30299976887537E-18  -1.91770318103045E-15
      0.00000000000000E+00
      0.00000000000000E+00   0.00000000000000E+00   0.00000000000000E+00   0.00000000000000E+00   1.47597114036863E-26
      1.70007852076294E-18   1.70007853552265E-18   4.88160351580687E-15   0.00000000000000E+00   0.00000000000000E+00
      0.00000000000000E+00   0.00000000000000E+00  -1.47506984439915E-26  -3.83894114003170E-22  -3.83908864701614E-22
     -2.96390033467305E-15   0.00000000000000E+00   0.00000000000000E+00   0.00000000000000E+00   0.00000000000000E+00
     -8.48069668121589E-30  -1.69969462664947E-18  -1.69969462665795E-18  -1.91770318113383E-15
      1.00000000000000E-01
      8.00000000000000E-02   8.00000000000000E-02   0.00000000000000E+00   0.00000000000000E+00   1.49241159852969E-16
      1.16237104894666E-19   1.49357396957864E-16   5.13893573904233E-15   0.00000000000000E+00   0.00000000000000E+00
      0.00000000000000E+00   0.00000000000000E+00  -9.93421735365488E-19  -1.31406869155785E-17  -1.41341086509440E-17
     -3.22048976051974E-15   0.00000000000000E+00   0.00000000000000E+00   0.00000000000000E+00   0.00000000000000E+00
     -2.28396109799474E-17  -1.12383677326973E-16  -1.35223288306920E-16  -1.91844597852258E-15
      2.00000000000000E-01
      1.60000000000000E-01   1.60000000000000E-01   0.00000000000000E+00   0.00000000000000E+00   2.14273939132685E-16
     -2.41038509575363E-19   2.14032900623110E-16   5.39123909101477E-15   0.00000000000000E+00   0.00000000000000E+00
      0.00000000000000E+00   0.00000000000000E+00  -1.03467417282775E-18  -2.04321717621623E-17  -2.14668459349900E-17
     -3.47205062465589E-15   0.00000000000000E+00   0.00000000000000E+00   0.00000000000000E+00   0.00000000000000E+00
     -2.29524633390804E-17  -1.69613591349039E-16  -1.92566054688120E-16  -1.91918846635885E-15
      3.00000000000000E-01
      2.40000000000000E-01   2.40000000000000E-01   0.00000000000000E+00   0.00000000000000E+00   2.66974574543168E-16
      1.10605519586575E-19   2.67085180062755E-16   5.63899870156728E-15   0.00000000000000E+00   0.00000000000000E+00
      0.00000000000000E+00   0.00000000000000E+00  -1.03622203749576E-18  -2.66770292035489E-17  -2.77132512410447E-17
     -3.71906782829986E-15   0.00000000000000E+00   0.00000000000000E+00   0.00000000000000E+00   0.00000000000000E+00
     -2.29524423937246E-17  -2.16419486427985E-16  -2.39371928821710E-16  -1.91993087326740E-15
      4.00000000000000E-01
      3.20000000000000E-01   3.20000000000000E-01   0.00000000000000E+00   0.00000000000000E+00   3.13632401000428E-16
      1.72748627375860E-18   3.15359887274187E-16   5.88233249868368E-15   0.00000000000000E+00   0.00000000000000E+00
      0.00000000000000E+00   0.00000000000000E+00  -1.03627687924456E-18  -3.23949747815778E-17  -3.34312516608224E-17
     -3.96165928299906E-15   0.00000000000000E+00   0.00000000000000E+00   0.00000000000000E+00   0.00000000000000E+00
     -2.29524636556211E-17  -2.58976171957744E-16  -2.81928635613365E-16  -1.92067321568461E-15
      5.00000000000000E-01
      4.00000000000000E-01   4.00000000000000E-01   0.00000000000000E+00   0.00000000000000E+00   3.56388333457134E-16
      1.60607737317250E-19   3.56548941194451E-16   6.12106001420064E-15   0.00000000000000E+00   0.00000000000000E+00
      0.00000000000000E+00   0.00000000000000E+00  -1.03628671284319E-18  -3.77399701610256E-17  -3.87762568738687E-17
     -4.19964458534487E-15   0.00000000000000E+00   0.00000000000000E+00   0.00000000000000E+00   0.00000000000000E+00
     -2.29524876671457E-17  -2.94820196653437E-16  -3.17772684320582E-16  -1.92141542885576E-15
      6.00000000000000E-01
      4.80000000000000E-01   4.80000000000000E-01   0.00000000000000E+00   0.00000000000000E+00   3.96408806095720E-16
      6.99833957035621E-19   3.97108640052756E-16   6.35508554806349E-15   0.00000000000000E+00   0.00000000000000E+00
      0.00000000000000E+00   0.00000000000000E+00  -1.03629542512499E-18  -4.28214044394665E-17  -4.38576998645915E-17
     -4.43292812182440E-15   0.00000000000000E+00   0.00000000000000E+00   0.00000000000000E+00   0.00000000000000E+00
     -2.29525117995269E-17  -3.30298428388637E-16  -3.53250940188164E-16  -1.92215742623909E-15
      7.00000000000000E-01
      5.60000000000000E-01   5.60000000000000E-01   0.00000000000000E+00   0.00000000000000E+00   4.34337844487569E-16
     -5.61536532254947E-19   4.33776307955314E-16   6.58495219862033E-15   0.00000000000000E+00   0.00000000000000E+00
      0.00000000000000E+00   0.00000000000000E+00  -1.03630362840997E-18  -4.77113751799921E-17  -4.87476788084021E-17
     -4.66205307440609E-15   0.00000000000000E+00   0.00000000000000E+00   0.00000000000000E+00   0.00000000000000E+00
     -2.29525359631205E-17  -3.62076093183792E-16  -3.85028629146912E-16  -1.92289912421425E-15
      8.00000000000000E-01
      6.40000000000000E-01   6.40000000000000E-01   0.00000000000000E+00   0.00000000000000E+00   4.70530282465520E-16
      4.54359289774625E-19   4.70984641755294E-16   6.81149304010765E-15   0.00000000000000E+00   0.00000000000000E+00
      0.00000000000000E+00   0.00000000000000E+00  -1.03631148563448E-18  -5.25288353198419E-17  -5.35651468054763E-17
     -4.88785258996756E-15   0.00000000000000E+00   0.00000000000000E+00   0.00000000000000E+00   0.00000000000000E+00
     -2.29525601477675E-17  -3.94466934802050E-16  -4.17419494949818E-16  -1.92364045014005E-15
      9.00000000000000E-01
      7.20000000000000E-01   7.20000000000000E-01   0.00000000000000E+00   0.00000000000000E+00   5.05252497028953E-16
      2.36897291919375E-19   5.05489394320872E-16   7.03516328109816E-15   0.00000000000000E+00   0.00000000000000E+00
      0.00000000000000E+00   0.00000000000000E+00  -1.03631887262796E-18  -5.73858466588781E-17  -5.84221655315060E-17
     -5.11078193945055E-15   0.00000000000000E+00   0.00000000000000E+00   0.00000000000000E+00   0.00000000000000E+00
     -2.29525843475164E-17  -4.24114644441850E-16  -4.47067228789366E-16  -1.92438134164759E-15
      1.00000000000000E+00
      8.00000000000000E-01   8.00000000000000E-01   0.00000000000000E+00   0.00000000000000E+00   5.38750978378853E-16
      2.08982117200363E-19   5.38959960496054E-16   7.25606300692790E-15   0.00000000000000E+00   0.00000000000000E+00
      0.00000000000000E+00   0.00000000000000E+00  -1.03632563685233E-18  -6.24243305068854E-17  -6.34606561437378E-17
     -5.33094126766849E-15   0.00000000000000E+00   0.00000000000000E+00   0.00000000000000E+00   0.00000000000000E+00
     -2.29526085573503E-17  -4.52546695794965E-16  -4.75499304352315E-16  -1.92512173925938E-15
      0.00000000000000E+00
      8.00000000000000E-01   8.00000000000000E-01   0.00000000000000E+00   0.00000000000000E+00   5.38750978434459E-16
     -6.49937131902084E-20   5.38685984721269E-16   7.25606300692789E-15   0.00000000000000E+00   0.00000000000000E+00
      0.00000000000000E+00   0.00000000000000E+00  -1.03632569246041E-18  -6.24192823675499E-17  -6.34556080600103E-17
     -5.33094126766850E-15   0.00000000000000E+00   0.00000000000000E+00   0.00000000000000E+00   0.00000000000000E+00
     -2.29526085573502E-17  -4.52277768103908E-16  -4.75230376661258E-16  -1.92512173925938E-15
      1.00000000000000E-02
      8.00000000000000E-01   8.00000000000000E-01   0.00000000000000E+00   0.00000000000000E+00   6.93367989838572E-16
     -4.07566407939049E-18   6.89292325759181E-16   7.26066695626390E-15   0.00000000000000E+00   0.00000000000000E+00
      0.00000000000000E+00   0.00000000000000E+00  -1.03632568798887E-18  -6.18511850218121E-17  -6.28875107098009E-17
     -5.33092873665790E-15  -5.00000000000000E-01  -5.00000000000000E-01   0.00000000000000E+00   0.00000000000000E+00
     -2.29527595489220E-17  -6.03452055500458E-16  -6.26404815049380E-16  -1.92973821960601E-15
      2.00000000000000E-02
      8.00000000000000E-01   8.00000000000000E-01   0.00000000000000E+00   0.00000000000000E+00   8.21737183229811E-16
      8.02273429674631E-19   8.22539456659485E-16   7.26520953736636E-15   0.00000000000000E+00   0.00000000000000E+00
      0.00000000000000E+00   0.00000000000000E+00  -1.03632566780806E-18  -6.14567865361272E-17  -6.24931122039353E-17
     -5.33087219074110E-15  -1.00000000000000E+00  -1.00000000000000E+00   0.00000000000000E+00   0.00000000000000E+00
     -2.29529114192406E-17  -7.37093433036309E-16  -7.60046344455549E-16  -1.93433734662524E-15
      3.00000000000000E-02
      8.00000000000000E-01   8.00000000000000E-01   0.00000000000000E+00   0.00000000000000E+00   9.32291048879485E-16
      5.30522222601290E-18   9.37596271105498E-16   7.26959707050821E-15   0.00000000000000E+00   0.00000000000000E+00
      0.00000000000000E+00   0.00000000000000E+00  -1.03632559398606E-18  -6.12145060465765E-17  -6.22508316405626E-17
     -5.33066536751916E-15  -1.50000000000000E+00  -1.50000000000000E+00   0.00000000000000E+00   0.00000000000000E+00
     -2.29530631396696E-17  -8.52392376325266E-16  -8.75345439464936E-16  -1.93893170298905E-15
      4.00000000000000E-02
      8.00000000000000E-01   8.00000000000000E-01   0.00000000000000E+00   0.00000000000000E+00   1.02391880113166E-15
      5.46630056763573E-18   1.02938510169930E-15   7.27362345469087E-15   0.00000000000000E+00   0.00000000000000E+00
      0.00000000000000E+00   0.00000000000000E+00  -1.03632537656322E-18  -6.11556166951670E-17  -6.21919420717302E-17
     -5.33005593079663E-15  -2.00000000000000E+00  -2.00000000000000E+00   0.00000000000000E+00   0.00000000000000E+00
     -2.29532165835597E-17  -9.44239943044009E-16  -9.67193159627569E-16  -1.94356752389421E-15
      5.00000000000000E-02
      8.00000000000000E-01   8.00000000000000E-01   0.00000000000000E+00   0.00000000000000E+00   1.09655145983096E-15
      3.79111098605539E-19   1.09693057092957E-15   7.27690659048829E-15   0.00000000000000E+00   0.00000000000000E+00
      0.00000000000000E+00   0.00000000000000E+00  -1.03632485825697E-18  -6.13374810851091E-17  -6.23738059433661E-17
     -5.32859914964240E-15  -2.50000000000000E+00  -2.50000000000000E+00   0.00000000000000E+00   0.00000000000000E+00
     -2.29533737858761E-17  -1.01160339120032E-15  -1.03455676498620E-15  -1.94830744084587E-15
      6.00000000000000E-02
      8.00000000000000E-01   8.00000000000000E-01   0.00000000000000E+00   0.00000000000000E+00   1.15415647087282E-15
     -3.31226758654039E-18   1.15084420328628E-15   7.27893727888087E-15   0.00000000000000E+00   0.00000000000000E+00
      0.00000000000000E+00   0.00000000000000E+00  -1.03632384708034E-18  -6.18720552117282E-17  -6.29083790588086E-17
     -5.32573471339603E-15  -3.00000000000000E+00  -3.00000000000000E+00   0.00000000000000E+00   0.00000000000000E+00
     -2.29535364282698E-17  -1.06498228779920E-15  -1.08793582422747E-15  -1.95320256548484E-15
      7.00000000000000E-02
      8.00000000000000E-01   8.00000000000000E-01   0.00000000000000E+00   0.00000000000000E+00   1.19976797027958E-15
      3.52521893676687E-18   1.20329318921635E-15   7.27931597400577E-15   0.00000000000000E+00   0.00000000000000E+00
      0.00000000000000E+00   0.00000000000000E+00  -1.03632221325017E-18  -6.29109792883936E-17  -6.39473015016438E-17
     -5.32102713691241E-15  -3.50000000000000E+00  -3.50000000000000E+00   0.00000000000000E+00   0.00000000000000E+00
     -2.29537057056651E-17  -1.11639218200904E-15  -1.13934588771470E-15  -1.95828883709336E-15
      8.00000000000000E-02
      8.00000000000000E-01   8.00000000000000E-01   0.00000000000000E+00   0.00000000000000E+00   1.23511542613900E-15
     -6.50263036734052E-19   1.23446516310227E-15   7.27800957149950E-15   0.00000000000000E+00   0.00000000000000E+00
      0.00000000000000E+00   0.00000000000000E+00  -1.03631998088900E-18  -6.46394265177077E-17  -6.56757464985967E-17
     -5.31442011941809E-15  -4.00000000000000E+00  -4.00000000000000E+00   0.00000000000000E+00   0.00000000000000E+00
     -2.29538823994811E-17  -1.14583553420419E-15  -1.16878941660367E-15  -1.96358945208140E-15
      9.00000000000000E-02
      8.00000000000000E-01   8.00000000000000E-01   0.00000000000000E+00   0.00000000000000E+00   1.26311290752316E-15
     -3.73332051085272E-18   1.25937958701231E-15   7.27532090015045E-15   0.00000000000000E+00   0.00000000000000E+00
      0.00000000000000E+00   0.00000000000000E+00  -1.03631729394289E-18  -6.71026289779610E-17  -6.81389462719039E-17
     -5.30620084830861E-15  -4.50000000000000E+00  -4.50000000000000E+00   0.00000000000000E+00   0.00000000000000E+00
     -2.29540670459921E-17  -1.16828657369441E-15  -1.19124064074040E-15  -1.96912005184181E-15
      1.00000000000000E-01
      8.00000000000000E-01   8.00000000000000E-01   0.00000000000000E+00   0.00000000000000E+00   1.28523823883010E-15
      5.50026209425955E-19   1.28578826503953E-15   7.27160507988041E-15   0.00000000000000E+00   0.00000000000000E+00
      0.00000000000000E+00   0.00000000000000E+00  -1.03631429781441E-18  -6.99846568223621E-17  -7.10209711201765E-17
     -5.29671504888504E-15  -5.00000000000000E+00  -5.00000000000000E+00   0.00000000000000E+00   0.00000000000000E+00
     -2.29542599774174E-17  -1.19181303394193E-15  -1.21476729391935E-15  -1.97489003099534E-15
      1.10000000000000E-01
      8.00000000000000E-01   8.00000000000000E-01   0.00000000000000E+00   0.00000000000000E+00   1.30208880110455E-15
     -3.64907768408874E-18   1.29843972342046E-15   7.26711183789480E-15   0.00000000000000E+00   0.00000000000000E+00
      0.00000000000000E+00   0.00000000000000E+00  -1.03631108710992E-18  -7.24376736202928E-17  -7.34739847074027E-17
     -5.28620838211258E-15  -5.50000000000000E+00  -5.50000000000000E+00   0.00000000000000E+00   0.00000000000000E+00
     -2.29544613507659E-17  -1.20201127736230E-15  -1.22496573871306E-15  -1.98090345578221E-15
      1.20000000000000E-01
      8.00000000000000E-01   8.00000000000000E-01   0.00000000000000E+00   0.00000000000000E+00   1.31446174674047E-15
     -4.66228679913626E-18   1.30979945994134E-15   7.26198956322183E-15   0.00000000000000E+00   0.00000000000000E+00
      0.00000000000000E+00   0.00000000000000E+00  -1.03630771545370E-18  -7.39648900907279E-17  -7.50011978061816E-17
     -5.27482858661199E-15  -6.00000000000000E+00  -6.00000000000000E+00   0.00000000000000E+00   0.00000000000000E+00
     -2.29546712105138E-17  -1.21184359092464E-15  -1.23479826213515E-15  -1.98716097660984E-15
      1.30000000000000E-01
      8.00000000000000E-01   8.00000000000000E-01   0.00000000000000E+00   0.00000000000000E+00   1.32373020502439E-15
     -1.94469078032138E-18   1.32178551424407E-15   7.25632434759138E-15   0.00000000000000E+00   0.00000000000000E+00
      0.00000000000000E+00   0.00000000000000E+00  -1.03630421364581E-18  -7.46982399522323E-17  -7.57345441658782E-17
     -5.26266295579724E-15  -6.50000000000000E+00  -6.50000000000000E+00   0.00000000000000E+00   0.00000000000000E+00
     -2.29548895402157E-17  -1.22309608053797E-15  -1.24605097007819E-15  -1.99366139179413E-15
      1.40000000000000E-01
      8.00000000000000E-01   8.00000000000000E-01   0.00000000000000E+00   0.00000000000000E+00   1.33104358795643E-15
      4.46244442630549E-18   1.33550603238274E-15   7.25016745337177E-15   0.00000000000000E+00   0.00000000000000E+00
      0.00000000000000E+00   0.00000000000000E+00  -1.03630060073818E-18  -7.49610065114298E-17  -7.59973071121680E-17
     -5.24976489862055E-15  -7.00000000000000E+00  -7.00000000000000E+00   0.00000000000000E+00   0.00000000000000E+00
     -2.29551162925157E-17  -1.23655360897805E-15  -1.25950872527057E-15  -2.00040255475120E-15
      1.50000000000000E-01
      8.00000000000000E-01   8.00000000000000E-01   0.00000000000000E+00   0.00000000000000E+00   1.33707261396835E-15
      7.58316717308834E-18   1.34465578114144E-15   7.24355028229975E-15   0.00000000000000E+00   0.00000000000000E+00
      0.00000000000000E+00   0.00000000000000E+00  -1.03629688955188E-18  -7.49240694333396E-17  -7.59603663228915E-17
     -5.23616843047944E-15  -7.50000000000000E+00  -7.50000000000000E+00   0.00000000000000E+00   0.00000000000000E+00
     -2.29553514049745E-17  -1.24574006341357E-15  -1.26869541481855E-15  -2.00738185182033E-15
      1.60000000000000E-01
      8.00000000000000E-01   8.00000000000000E-01   0.00000000000000E+00   0.00000000000000E+00   1.34217367255304E-15
     -2.37906551636098E-17   1.31838301738943E-15   7.23649213897493E-15   0.00000000000000E+00   0.00000000000000E+00
      0.00000000000000E+00   0.00000000000000E+00  -1.03629308935959E-18  -7.46836797799189E-17  -7.57199728692785E-17
     -5.22189568728456E-15  -8.00000000000000E+00  -8.00000000000000E+00   0.00000000000000E+00   0.00000000000000E+00
     -2.29555948083201E-17  -1.21970744971183E-15  -1.24266304452015E-15  -2.01459645169038E-15
      1.70000000000000E-01
      8.00000000000000E-01   8.00000000000000E-01   0.00000000000000E+00   0.00000000000000E+00   1.34655396183526E-15
      6.89904471899043E-19   1.34724386630716E-15   7.22900419403598E-15   0.00000000000000E+00   0.00000000000000E+00
      0.00000000000000E+00   0.00000000000000E+00  -1.03628920723580E-18  -7.43162535630700E-17  -7.53525427703058E-17
     -5.20696075886682E-15  -8.50000000000000E+00  -8.50000000000000E+00   0.00000000000000E+00   0.00000000000000E+00
     -2.29558464307470E-17  -1.24893547710611E-15  -1.27189132353685E-15  -2.02204343516917E-15
      1.80000000000000E-01
      8.00000000000000E-01   8.00000000000000E-01   0.00000000000000E+00   0.00000000000000E+00   1.35036275022450E-15
      8.61034298327724E-18   1.35897309320778E-15   7.22109128186035E-15   0.00000000000000E+00   0.00000000000000E+00
      0.00000000000000E+00   0.00000000000000E+00  -1.03628524876130E-18  -7.38141147043372E-17  -7.48503999530985E-17
     -5.19137142542664E-15  -9.00000000000000E+00  -9.00000000000000E+00   0.00000000000000E+00   0.00000000000000E+00
     -2.29561061999248E-17  -1.26116658705476E-15  -1.28412269325468E-15  -2.02971985643370E-15
      1.90000000000000E-01
      8.00000000000000E-01   8.00000000000000E-01   0.00000000000000E+00   0.00000000000000E+00   1.35372705918755E-15
     -1.16451494094535E-17   1.34208190977810E-15   7.21275218680778E-15   0.00000000000000E+00   0.00000000000000E+00
      0.00000000000000E+00   0.00000000000000E+00  -1.03628121838065E-18  -7.31878602787333E-17  -7.42241414971140E-17
     -5.17512943018072E-15  -9.50000000000000E+00  -9.50000000000000E+00   0.00000000000000E+00   0.00000000000000E+00
     -2.29563740434211E-17  -1.24490139423756E-15  -1.26785776828098E-15  -2.03762275662702E-15
      2.00000000000000E-01
      8.00000000000000E-01   8.00000000000000E-01   0.00000000000000E+00   0.00000000000000E+00   1.35674639325668E-15
      1.55248436138911E-17   1.37227123687058E-15   7.20397855024221E-15   0.00000000000000E+00   0.00000000000000E+00
      0.00000000000000E+00   0.00000000000000E+00  -1.03627711953978E-18  -7.23955348764258E-17  -7.34318119959656E-17
     -5.15822941517968E-15  -1.00000000000000E+01  -1.00000000000000E+01   0.00000000000000E+00   0.00000000000000E+00
     -2.29566498876823E-17  -1.27588277498693E-15  -1.29883942487461E-15  -2.04574913506253E-15
      2.10000000000000E-01
      8.00000000000000E-01   8.00000000000000E-01   0.00000000000000E+00   0.00000000000000E+00   1.35949124971934E-15
      5.41011043031943E-18   1.36490136014966E-15   7.19475222697300E-15   0.00000000000000E+00   0.00000000000000E+00
      0.00000000000000E+00   0.00000000000000E+00  -1.03627295465483E-18  -7.12645614991790E-17  -7.23008344538339E-17
     -5.14065635172329E-15  -1.05000000000000E+01  -1.05000000000000E+01   0.00000000000000E+00   0.00000000000000E+00
     -2.29569336554755E-17  -1.26964359204035E-15  -1.29260052569583E-15  -2.05409587524972E-15
      2.20000000000000E-01
      8.00000000000000E-01   8.00000000000000E-01   0.00000000000000E+00   0.00000000000000E+00   1.36203727468210E-15
     -9.50653848350103E-19   1.36108662083375E-15   7.18504079453058E-15   0.00000000000000E+00   0.00000000000000E+00
      0.00000000000000E+00   0.00000000000000E+00  -1.03626872493668E-18  -6.91600112453465E-17  -7.01962799702832E-17
     -5.12238117351045E-15  -1.10000000000000E+01  -1.10000000000000E+01   0.00000000000000E+00   0.00000000000000E+00
     -2.29572252616018E-17  -1.26793311560187E-15  -1.29089034086347E-15  -2.06265962102015E-15
      2.30000000000000E-01
      8.00000000000000E-01   8.00000000000000E-01   0.00000000000000E+00   0.00000000000000E+00   1.36445173770965E-15
      1.56877367791684E-17   1.38013947448882E-15   7.17479137666906E-15   0.00000000000000E+00   0.00000000000000E+00
      0.00000000000000E+00   0.00000000000000E+00  -1.03626443012828E-18  -6.38145707511734E-17  -6.48508351813017E-17
     -5.10335476322549E-15  -1.15000000000000E+01  -1.15000000000000E+01   0.00000000000000E+00   0.00000000000000E+00
     -2.29575246072399E-17  -1.29233111470028E-15  -1.31528863930752E-15  -2.07143661344356E-15
      2.40000000000000E-01
      8.00000000000000E-01   8.00000000000000E-01   0.00000000000000E+00   0.00000000000000E+00   1.36678128390332E-15
      1.65792910231361E-17   1.38336057492646E-15   7.16392573047759E-15   0.00000000000000E+00   0.00000000000000E+00
      0.00000000000000E+00   0.00000000000000E+00  -1.03626006841905E-18  -4.72089456920470E-17  -4.82452057604660E-17
     -5.08350315027419E-15  -1.20000000000000E+01  -1.20000000000000E+01   0.00000000000000E+00   0.00000000000000E+00
     -2.29578315760160E-17  -1.31215753758998E-15  -1.33511536916599E-15  -2.08042258020342E-15
      2.50000000000000E-01
      8.00000000000000E-01   8.00000000000000E-01   0.00000000000000E+00   0.00000000000000E+00   1.36906263975709E-15
     -5.25713652883133E-18   1.36380550322826E-15   7.15234915652575E-15   0.00000000000000E+00   0.00000000000000E+00
      0.00000000000000E+00   0.00000000000000E+00  -1.03625563745412E-18   8.84608937409762E-18   7.80983373664350E-18
     -5.06273612248912E-15  -1.25000000000000E+01  -1.25000000000000E+01   0.00000000000000E+00   0.00000000000000E+00
     -2.29581460440424E-17  -1.34865719092086E-15  -1.37161533696491E-15  -2.08961303403661E-15
      2.60000000000000E-01
      8.00000000000000E-01   8.00000000000000E-01   0.00000000000000E+00   0.00000000000000E+00   1.37131588727646E-15
      1.26581150946603E-17   1.38397400237112E-15   7.14000224446799E-15   0.00000000000000E+00   0.00000000000000E+00
      0.00000000000000E+00   0.00000000000000E+00  -1.03625113828730E-18   2.01999237489589E-16   2.00962986351302E-16
     -5.04099748473378E-15  -1.30000000000000E+01  -1.30000000000000E+01   0.00000000000000E+00   0.00000000000000E+00
     -2.29584679308332E-17  -1.56197852079159E-15  -1.58493698872243E-15  -2.09900475973421E-15
      2.70000000000000E-01
      8.00000000000000E-01   8.00000000000000E-01   0.00000000000000E+00   0.00000000000000E+00   1.37352234856614E-15
      1.28457070829395E-17   1.38636805564908E-15   7.12696114701703E-15   0.00000000000000E+00   0.00000000000000E+00
      0.00000000000000E+00   0.00000000000000E+00  -1.03624658195129E-18   8.63257756420228E-16   8.62221509838276E-16
     -5.01836260523689E-15  -1.35000000000000E+01  -1.35000000000000E+01   0.00000000000000E+00   0.00000000000000E+00
     -2.29587972933468E-17  -2.22563076819402E-15  -2.24858956548736E-15  -2.10859854178018E-15
      2.80000000000000E-01
      8.00000000000000E-01   8.00000000000000E-01   0.00000000000000E+00   0.00000000000000E+00   1.37561658130075E-15
      1.05889203842976E-17   1.38620550168505E-15   7.11347068537126E-15   0.00000000000000E+00   0.00000000000000E+00
      0.00000000000000E+00   0.00000000000000E+00  -1.03624199013018E-18   3.07902565592229E-15   3.07798941393216E-15
     -4.99507081732685E-15  -1.40000000000000E+01  -1.40000000000000E+01   0.00000000000000E+00   0.00000000000000E+00
     -2.29591343513519E-17  -4.44123578126587E-15  -4.46419491561722E-15  -2.11839986804442E-15
      2.90000000000000E-01
      8.00000000000000E-01   8.00000000000000E-01   0.00000000000000E+00   0.00000000000000E+00   1.37751209859948E-15
      1.05322154038713E-17   1.38804431400335E-15   7.09981616199176E-15   0.00000000000000E+00   0.00000000000000E+00
      0.00000000000000E+00   0.00000000000000E+00  -1.03623738495327E-18   1.02828857159468E-14   1.02818494785619E-14
     -4.97140093950979E-15  -1.45000000000000E+01  -1.45000000000000E+01   0.00000000000000E+00   0.00000000000000E+00
     -2.29594793610057E-17  -1.16469343132042E-14  -1.16698937925652E-14  -2.12841522248198E-15
      3.00000000000000E-01
      8.00000000000000E-01   8.00000000000000E-01   0.00000000000000E+00   0.00000000000000E+00   1.37912405532646E-15
     -2.19709449801409E-18   1.37692696082844E-15   7.08619775294718E-15   0.00000000000000E+00   0.00000000000000E+00
      0.00000000000000E+00   0.00000000000000E+00  -1.03623278033212E-18   3.29120429539677E-14   3.29110067211874E-14
     -4.94754910413312E-15  -1.50000000000000E+01  -1.50000000000000E+01   0.00000000000000E+00   0.00000000000000E+00
     -2.29598324965231E-17  -3.42649738495194E-14  -3.42879336820160E-14  -2.13864864881407E-15
      3.10000000000000E-01
      8.00000000000000E-01   8.00000000000000E-01   0.00000000000000E+00   0.00000000000000E+00   1.38036150939356E-15
     -3.49500963673666E-18   1.37686649975683E-15   7.07272236330201E-15   0.00000000000000E+00   0.00000000000000E+00
      0.00000000000000E+00   0.00000000000000E+00  -1.03622814792178E-18   1.01462652287705E-13   1.01461616059557E-13
     -4.92362076101091E-15  -1.55000000000000E+01  -1.55000000000000E+01   0.00000000000000E+00   0.00000000000000E+00
     -2.29601938443608E-17  -1.02815522365469E-13  -1.02838482559314E-13  -2.14910160229112E-15
      3.20000000000000E-01
      8.00000000000000E-01   8.00000000000000E-01   0.00000000000000E+00   0.00000000000000E+00   1.38109863470895E-15
      1.21920933387902E-17   1.39329072804774E-15   7.05944282515219E-15   0.00000000000000E+00   0.00000000000000E+00
      0.00000000000000E+00   0.00000000000000E+00  -1.03622354243981E-18   3.01499214115140E-13   3.01498177891597E-13
     -4.89966876252470E-15  -1.60000000000000E+01  -1.60000000000000E+01   0.00000000000000E+00   0.00000000000000E+00
     -2.29605634410325E-17  -3.02868508056205E-13  -3.02891468619646E-13  -2.15977406262750E-15
      3.30000000000000E-01
      8.00000000000000E-01   8.00000000000000E-01   0.00000000000000E+00   0.00000000000000E+00   1.38111986086268E-15
      3.79100797005374E-17   1.41902994056322E-15   7.04638818270577E-15   0.00000000000000E+00   0.00000000000000E+00
      0.00000000000000E+00   0.00000000000000E+00  -1.03621866116878E-18   8.63263066541922E-13   8.63262030323261E-13
     -4.87572278610077E-15  -1.65000000000000E+01  -1.65000000000000E+01   0.00000000000000E+00   0.00000000000000E+00
     -2.29609413026240E-17  -8.64658099322523E-13  -8.64681060263826E-13  -2.17066539660500E-15
      3.40000000000000E-01
      8.00000000000000E-01   8.00000000000000E-01   0.00000000000000E+00   0.00000000000000E+00   1.37999068060367E-15
     -7.22622254439874E-18   1.37276445805927E-15   7.03357968710758E-15   0.00000000000000E+00   0.00000000000000E+00
      0.00000000000000E+00   0.00000000000000E+00  -1.03621326943341E-18   2.37999633307520E-12   2.37999529686193E-12
     -4.85180480217295E-15  -1.70000000000000E+01  -1.70000000000000E+01   0.00000000000000E+00   0.00000000000000E+00
     -2.29613274429699E-17  -2.38134509999254E-12  -2.38136806131999E-12  -2.18177488493462E-15
      3.50000000000000E-01
      8.00000000000000E-01   8.00000000000000E-01   0.00000000000000E+00   0.00000000000000E+00   1.37676190544753E-15
      1.39688575560913E-17   1.39073076300362E-15   7.02103926193780E-15   0.00000000000000E+00   0.00000000000000E+00
      0.00000000000000E+00   0.00000000000000E+00  -1.03620785816690E-18   6.31239683900669E-12   6.31239580279883E-12
     -4.82793707633555E-15  -1.75000000000000E+01  -1.75000000000000E+01   0.00000000000000E+00   0.00000000000000E+00
     -2.29617218898455E-17  -6.31376357183994E-12  -6.31378653356183E-12  -2.19310218560223E-15
      3.60000000000000E-01
      8.00000000000000E-01   8.00000000000000E-01   0.00000000000000E+00   0.00000000000000E+00   1.36940323803788E-15
      2.41760609641813E-18   1.37182084413430E-15   7.00879550545329E-15   0.00000000000000E+00   0.00000000000000E+00