DF-ISE text

Info {
  version   = 1.0
  type      = xyplot
  datasets  = [
    "time"
    "Ntop OuterVoltage" "Ntop InnerVoltage" "Ntop QuasiFermiPotential" "Ntop DisplacementCurrent" "Ntop eCurrent"
    "Ntop hCurrent" "Ntop TotalCurrent" "Ntop Charge" "Ptop OuterVoltage" "Ptop InnerVoltage"
    "Ptop QuasiFermiPotential" "Ptop DisplacementCurrent" "Ptop eCurrent" "Ptop hCurrent" "Ptop TotalCurrent"
    "Ptop Charge" "Pbot OuterVoltage" "Pbot InnerVoltage" "Pbot QuasiFermiPotential" "Pbot DisplacementCurrent"
    "Pbot eCurrent" "Pbot hCurrent" "Pbot TotalCurrent" "Pbot Charge" ]
  functions = [
    Time
    OuterVoltage InnerVoltage QuasiFermiPotential DisplacementCurrent eCurrent
    hCurrent TotalCurrent Charge OuterVoltage InnerVoltage
    QuasiFermiPotential DisplacementCurrent eCurrent hCurrent TotalCurrent
    Charge OuterVoltage InnerVoltage QuasiFermiPotential DisplacementCurrent
    eCurrent hCurrent TotalCurrent Charge ]
}

Data {
      0.00000000000000E+00
      0.00000000000000E+00   0.00000000000000E+00   0.00000000000000E+00   0.00000000000000E+00  -7.18971331970991E-26
     -4.39277071410427E-18  -4.39277078600140E-18   4.85821041111586E-15   0.00000000000000E+00   0.00000000000000E+00
      0.00000000000000E+00   0.00000000000000E+00   7.19159685409104E-26   1.32799159641953E-19   1.32799231557922E-19
     -2.94050723009061E-15   0.00000000000000E+00   0.00000000000000E+00   0.00000000000000E+00   0.00000000000000E+00
     -1.88437866973496E-29   4.25997155446232E-18   4.25997155444348E-18  -1.91770318102527E-15
      0.00000000000000E+00
      0.00000000000000E+00   0.00000000000000E+00   0.00000000000000E+00   0.00000000000000E+00   1.25617111596447E-26
     -6.14821868596598E-19  -6.14821856034887E-19   4.85821041121924E-15   0.00000000000000E+00   0.00000000000000E+00
      0.00000000000000E+00   0.00000000000000E+00  -1.25656926177299E-26   1.64864806508899E-21   1.64863549939637E-21
     -2.94050723009059E-15   0.00000000000000E+00   0.00000000000000E+00   0.00000000000000E+00   0.00000000000000E+00
      4.47557570361565E-30   6.13173220531015E-19   6.13173220535490E-19  -1.91770318112865E-15
      1.00000000000000E-01
      8.00000000000000E-02   8.00000000000000E-02   0.00000000000000E+00   0.00000000000000E+00   1.49255875547173E-16
      1.45407747962525E-19   1.49401283295136E-16   5.11623515694430E-15   0.00000000000000E+00   0.00000000000000E+00
      0.00000000000000E+00   0.00000000000000E+00  -9.93420161582025E-19  -1.32060934372136E-17  -1.41995135987957E-17
     -3.19778917843678E-15   0.00000000000000E+00   0.00000000000000E+00   0.00000000000000E+00   0.00000000000000E+00
     -2.28396109797921E-17  -1.12362158716548E-16  -1.35201769696340E-16  -1.91844597850752E-15
      2.00000000000000E-01
      1.60000000000000E-01   1.60000000000000E-01   0.00000000000000E+00   0.00000000000000E+00   2.14313202939967E-16
      4.56253596019397E-19   2.14769456535986E-16   5.36910748764793E-15   0.00000000000000E+00   0.00000000000000E+00
      0.00000000000000E+00   0.00000000000000E+00  -1.03467250269707E-18  -2.05232683021779E-17  -2.15579408048750E-17
     -3.44991902132857E-15   0.00000000000000E+00   0.00000000000000E+00   0.00000000000000E+00   0.00000000000000E+00
     -2.29524633388257E-17  -1.70259052392285E-16  -1.93211515731111E-16  -1.91918846631935E-15
      3.00000000000000E-01
      2.40000000000000E-01   2.40000000000000E-01   0.00000000000000E+00   0.00000000000000E+00   2.67051809282994E-16
      1.22440170624123E-19   2.67174249453618E-16   5.61733803189748E-15   0.00000000000000E+00   0.00000000000000E+00
      0.00000000000000E+00   0.00000000000000E+00  -1.03622046561619E-18  -2.68198813814181E-17  -2.78561018470342E-17
     -3.69740715872730E-15   0.00000000000000E+00   0.00000000000000E+00   0.00000000000000E+00   0.00000000000000E+00
     -2.29524423937217E-17  -2.16365705212862E-16  -2.39318147606584E-16  -1.91993087317018E-15
      4.00000000000000E-01
      3.20000000000000E-01   3.20000000000000E-01   0.00000000000000E+00   0.00000000000000E+00   3.13753873481628E-16
      7.26017235564005E-19   3.14479890717192E-16   5.86105571622270E-15   0.00000000000000E+00   0.00000000000000E+00
      0.00000000000000E+00   0.00000000000000E+00  -1.03627530309210E-18  -3.25799934041585E-17  -3.36162687072506E-17
     -3.94038250076673E-15   0.00000000000000E+00   0.00000000000000E+00   0.00000000000000E+00   0.00000000000000E+00
     -2.29524636556136E-17  -2.57911158354328E-16  -2.80863622009942E-16  -1.92067321545594E-15
      5.00000000000000E-01
      4.00000000000000E-01   4.00000000000000E-01   0.00000000000000E+00   0.00000000000000E+00   3.56560731960403E-16
      1.27687149496918E-18   3.57837603455373E-16   6.10008012432053E-15   0.00000000000000E+00   0.00000000000000E+00
      0.00000000000000E+00   0.00000000000000E+00  -1.03628503983142E-18  -3.79851625187152E-17  -3.90214475585467E-17
     -4.17866469598630E-15   0.00000000000000E+00   0.00000000000000E+00   0.00000000000000E+00   0.00000000000000E+00
     -2.29524876671287E-17  -2.95863668229697E-16  -3.18816155896826E-16  -1.92141542833423E-15
      6.00000000000000E-01
      4.80000000000000E-01   4.80000000000000E-01   0.00000000000000E+00   0.00000000000000E+00   3.96643792890731E-16
     -9.73183308593826E-19   3.95670609582138E-16   6.33430613923647E-15   0.00000000000000E+00   0.00000000000000E+00
      0.00000000000000E+00   0.00000000000000E+00  -1.03629362936078E-18  -4.31368840295882E-17  -4.41731776589489E-17
     -4.41214871416537E-15   0.00000000000000E+00   0.00000000000000E+00   0.00000000000000E+00   0.00000000000000E+00
     -2.29525117994886E-17  -3.28544920123700E-16  -3.51497431923189E-16  -1.92215742507108E-15
      7.00000000000000E-01
      5.60000000000000E-01   5.60000000000000E-01   0.00000000000000E+00   0.00000000000000E+00   4.34654340602491E-16
      9.07148729886119E-19   4.35561489332377E-16   6.56425721523378E-15   0.00000000000000E+00   0.00000000000000E+00
      0.00000000000000E+00   0.00000000000000E+00  -1.03630168672042E-18  -4.81088377905205E-17  -4.91451394772409E-17
     -4.64135809362022E-15   0.00000000000000E+00   0.00000000000000E+00   0.00000000000000E+00   0.00000000000000E+00
     -2.29525359630359E-17  -3.63463813892100E-16  -3.86416349855136E-16  -1.92289912161355E-15
      8.00000000000000E-01
      6.40000000000000E-01   6.40000000000000E-01   0.00000000000000E+00   0.00000000000000E+00   4.70959643278686E-16
      3.06231947897830E-19   4.71265875226583E-16   6.79073358933449E-15   0.00000000000000E+00   0.00000000000000E+00
      0.00000000000000E+00   0.00000000000000E+00  -1.03630937943408E-18  -5.30467431890283E-17  -5.40830525684624E-17
     -4.86709314502337E-15   0.00000000000000E+00   0.00000000000000E+00   0.00000000000000E+00   0.00000000000000E+00
     -2.29525601475771E-17  -3.94230262510543E-16  -4.17182822658121E-16  -1.92364044431113E-15
      9.00000000000000E-01
      7.20000000000000E-01   7.20000000000000E-01   0.00000000000000E+00   0.00000000000000E+00   5.05843168983185E-16
      3.55746736584017E-21   5.05846726450551E-16   7.01414443700753E-15   0.00000000000000E+00   0.00000000000000E+00
      0.00000000000000E+00   0.00000000000000E+00  -1.03631656474367E-18  -5.80766772282150E-17  -5.91129937929587E-17
     -5.08976310865300E-15   0.00000000000000E+00   0.00000000000000E+00   0.00000000000000E+00   0.00000000000000E+00
     -2.29525843470817E-17  -4.23781148310510E-16  -4.46733732657592E-16  -1.92438132835451E-15
      1.00000000000000E+00
      8.00000000000000E-01   8.00000000000000E-01   0.00000000000000E+00   0.00000000000000E+00   5.39578954689533E-16
     -2.18939617358572E-19   5.39360015072174E-16   7.23454074104295E-15   0.00000000000000E+00   0.00000000000000E+00
      0.00000000000000E+00   0.00000000000000E+00  -1.03632304779757E-18  -6.33515206763580E-17  -6.43878437241556E-17
     -5.30941903275023E-15   0.00000000000000E+00   0.00000000000000E+00   0.00000000000000E+00   0.00000000000000E+00
     -2.29526085563371E-17  -4.52019562791681E-16  -4.74972171348018E-16  -1.92512170829273E-15
      0.00000000000000E+00
      8.00000000000000E-01   8.00000000000000E-01   0.00000000000000E+00   0.00000000000000E+00   5.39578954775558E-16
     -1.66036408057672E-19   5.39412918367500E-16   7.23454074104296E-15   0.00000000000000E+00   0.00000000000000E+00
      0.00000000000000E+00   0.00000000000000E+00  -1.03632313382960E-18  -6.33506264589471E-17  -6.43869495927767E-17
     -5.30941903275023E-15   0.00000000000000E+00   0.00000000000000E+00   0.00000000000000E+00   0.00000000000000E+00
     -2.29526085563370E-17  -4.52073360218386E-16  -4.75025968774723E-16  -1.92512170829273E-15
      1.00000000000000E-02
      8.00000000000000E-01   8.00000000000000E-01   0.00000000000000E+00   0.00000000000000E+00   6.94216011142555E-16
     -2.84603518447045E-18   6.91369975958084E-16   7.23914138457919E-15   0.00000000000000E+00   0.00000000000000E+00
      0.00000000000000E+00   0.00000000000000E+00  -1.03632312865345E-18  -6.27562545476769E-17  -6.37925776763304E-17
     -5.30940336069394E-15  -5.00000000000000E-01  -5.00000000000000E-01   0.00000000000000E+00   0.00000000000000E+00
     -2.29527595424866E-17  -6.04624638739267E-16  -6.27577398281753E-16  -1.92973802388524E-15
      2.00000000000000E-02
      8.00000000000000E-01   8.00000000000000E-01   0.00000000000000E+00   0.00000000000000E+00   8.22672463001483E-16
     -3.98366538909872E-19   8.22274096462573E-16   7.24366893635500E-15   0.00000000000000E+00   0.00000000000000E+00
      0.00000000000000E+00   0.00000000000000E+00  -1.03632310525043E-18  -6.23423962912308E-17  -6.33787193964812E-17
     -5.30933251656650E-15  -1.00000000000000E+00  -1.00000000000000E+00   0.00000000000000E+00   0.00000000000000E+00
     -2.29529113886731E-17  -7.35942465677418E-16  -7.58895377066092E-16  -1.93433641978851E-15
      3.00000000000000E-02
      8.00000000000000E-01   8.00000000000000E-01   0.00000000000000E+00   0.00000000000000E+00   9.33514358330034E-16
      1.97703882497861E-18   9.35491397155013E-16   7.24800039076797E-15   0.00000000000000E+00   0.00000000000000E+00
      0.00000000000000E+00   0.00000000000000E+00  -1.03632301922019E-18  -6.20895345234786E-17  -6.31258575426988E-17
     -5.30907214912659E-15  -1.50000000000000E+00  -1.50000000000000E+00   0.00000000000000E+00   0.00000000000000E+00
     -2.29530630252246E-17  -8.49412476587090E-16  -8.72365539612314E-16  -1.93892824164136E-15
      4.00000000000000E-02
      8.00000000000000E-01   8.00000000000000E-01   0.00000000000000E+00   0.00000000000000E+00   1.02581779829959E-15
     -9.80988748489544E-19   1.02483680955111E-15   7.25185481887320E-15   0.00000000000000E+00   0.00000000000000E+00
      0.00000000000000E+00   0.00000000000000E+00  -1.03632276337715E-18  -6.20505866583951E-17  -6.30869094217723E-17
     -5.30829752600083E-15  -2.00000000000000E+00  -2.00000000000000E+00   0.00000000000000E+00   0.00000000000000E+00
     -2.29532162445667E-17  -9.38796683884767E-16  -9.61749900129333E-16  -1.94355729287239E-15
      5.00000000000000E-02
      8.00000000000000E-01   8.00000000000000E-01   0.00000000000000E+00   0.00000000000000E+00   1.09975597451399E-15
      6.68488571394032E-19   1.10042446308538E-15   7.25470486543879E-15   0.00000000000000E+00   0.00000000000000E+00
      0.00000000000000E+00   0.00000000000000E+00  -1.03632214590694E-18  -6.23248306205596E-17  -6.33611527664665E-17
     -5.30642200526436E-15  -2.50000000000000E+00  -2.50000000000000E+00   0.00000000000000E+00   0.00000000000000E+00
     -2.29533729698943E-17  -1.01410993734902E-15  -1.03706331031892E-15  -1.94828286017442E-15
      6.00000000000000E-02
      8.00000000000000E-01   8.00000000000000E-01   0.00000000000000E+00   0.00000000000000E+00   1.15926307034979E-15
      1.07502281572218E-18   1.16033809316552E-15   7.25585810118488E-15   0.00000000000000E+00   0.00000000000000E+00
      0.00000000000000E+00   0.00000000000000E+00  -1.03632093428821E-18  -6.30719798628527E-17  -6.41083007971410E-17
     -5.30270481067593E-15  -3.00000000000000E+00  -3.00000000000000E+00   0.00000000000000E+00   0.00000000000000E+00
     -2.29535347897079E-17  -1.07327625757867E-15  -1.09622979236837E-15  -1.95315329050893E-15
      7.00000000000000E-02
      8.00000000000000E-01   8.00000000000000E-01   0.00000000000000E+00   0.00000000000000E+00   1.20690993933284E-15
      5.92532654018220E-19   1.20750247198685E-15   7.25484965708737E-15   0.00000000000000E+00   0.00000000000000E+00
      0.00000000000000E+00   0.00000000000000E+00  -1.03631900135210E-18  -6.45381843387238E-17  -6.55745033400760E-17
     -5.29664524447029E-15  -3.50000000000000E+00  -3.50000000000000E+00   0.00000000000000E+00   0.00000000000000E+00
     -2.29537028936815E-17  -1.11897426575310E-15  -1.14192796864678E-15  -1.95820441261706E-15
      8.00000000000000E-02
      8.00000000000000E-01   8.00000000000000E-01   0.00000000000000E+00   0.00000000000000E+00   1.24409417160070E-15
      3.65943978309040E-18   1.24775361138379E-15   7.25180868671567E-15   0.00000000000000E+00   0.00000000000000E+00
      0.00000000000000E+00   0.00000000000000E+00  -1.03631643817712E-18  -6.69229587530327E-17  -6.79592751912098E-17
     -5.28834587527335E-15  -4.00000000000000E+00  -4.00000000000000E+00   0.00000000000000E+00   0.00000000000000E+00
     -2.29538781747580E-17  -1.15684045801782E-15  -1.17979433619258E-15  -1.96346281144233E-15
      9.00000000000000E-02
      8.00000000000000E-01   8.00000000000000E-01   0.00000000000000E+00   0.00000000000000E+00   1.27320615270440E-15
     -7.98800825082981E-19   1.27240735187932E-15   7.24724876426045E-15   0.00000000000000E+00   0.00000000000000E+00
      0.00000000000000E+00   0.00000000000000E+00  -1.03631344825823E-18  -7.01367948815063E-17  -7.11731083297645E-17
     -5.27830101926934E-15  -4.50000000000000E+00  -4.50000000000000E+00   0.00000000000000E+00   0.00000000000000E+00
     -2.29540612890582E-17  -1.17828018226050E-15  -1.20123424354956E-15  -1.96894774499110E-15
      1.00000000000000E-01
      8.00000000000000E-01   8.00000000000000E-01   0.00000000000000E+00   0.00000000000000E+00   1.29527723160944E-15
      3.91379058899697E-18   1.29919102219844E-15   7.24162879386960E-15   0.00000000000000E+00   0.00000000000000E+00
      0.00000000000000E+00   0.00000000000000E+00  -1.03631019107050E-18  -7.33506481667032E-17  -7.43869583577737E-17
     -5.26695870472884E-15  -5.00000000000000E+00  -5.00000000000000E+00   0.00000000000000E+00   0.00000000000000E+00
     -2.29542526179000E-17  -1.20184981122276E-15  -1.22480406384066E-15  -1.97467008914074E-15
      1.10000000000000E-01
      8.00000000000000E-01   8.00000000000000E-01   0.00000000000000E+00   0.00000000000000E+00   1.31103296299716E-15
      6.87537872035365E-18   1.31790834171751E-15   7.23522968103657E-15   0.00000000000000E+00   0.00000000000000E+00
      0.00000000000000E+00   0.00000000000000E+00  -1.03630675514724E-18  -7.55549083127698E-17  -7.65912150679170E-17
     -5.25459549077686E-15  -5.50000000000000E+00  -5.50000000000000E+00   0.00000000000000E+00   0.00000000000000E+00
     -2.29544523273977E-17  -1.21836267432220E-15  -1.24131712664959E-15  -1.98063419025972E-15
      1.20000000000000E-01
      8.00000000000000E-01   8.00000000000000E-01   0.00000000000000E+00   0.00000000000000E+00   1.32210941667351E-15
     -6.60065059599008E-18   1.31550876607752E-15   7.22820842099302E-15   0.00000000000000E+00   0.00000000000000E+00
      0.00000000000000E+00   0.00000000000000E+00  -1.03630318642958E-18  -7.65973095983891E-17  -7.76336127848187E-17
     -5.24136768531184E-15  -6.00000000000000E+00  -6.00000000000000E+00   0.00000000000000E+00   0.00000000000000E+00
     -2.29546604629947E-17  -1.21492049282971E-15  -1.23787515329271E-15  -1.98684073568116E-15
      1.30000000000000E-01
      8.00000000000000E-01   8.00000000000000E-01   0.00000000000000E+00   0.00000000000000E+00   1.33030609298283E-15
      9.77444529101508E-18   1.34008053827385E-15   7.22065441197868E-15   0.00000000000000E+00   0.00000000000000E+00
      0.00000000000000E+00   0.00000000000000E+00  -1.03629951023906E-18  -7.69109974792863E-17  -7.79472969895254E-17
     -5.22736582221010E-15  -6.50000000000000E+00  -6.50000000000000E+00   0.00000000000000E+00   0.00000000000000E+00
     -2.29548770101768E-17  -1.23917836427415E-15  -1.26213324128433E-15  -1.99328858976857E-15
      1.40000000000000E-01
      8.00000000000000E-01   8.00000000000000E-01   0.00000000000000E+00   0.00000000000000E+00   1.33677435721754E-15
      1.93542635736898E-18   1.33870978357491E-15   7.21262030663478E-15   0.00000000000000E+00   0.00000000000000E+00
      0.00000000000000E+00   0.00000000000000E+00  -1.03629574194306E-18  -7.67986883134816E-17  -7.78349840554247E-17
     -5.21264458795488E-15  -7.00000000000000E+00  -7.00000000000000E+00   0.00000000000000E+00   0.00000000000000E+00
     -2.29551019250842E-17  -1.23791969759440E-15  -1.26087479951948E-15  -1.99997571867990E-15
      1.50000000000000E-01
      8.00000000000000E-01   8.00000000000000E-01   0.00000000000000E+00   0.00000000000000E+00   1.34211302358842E-15
      8.96925532566864E-18   1.35108227891409E-15   7.20413689996843E-15   0.00000000000000E+00   0.00000000000000E+00
      0.00000000000000E+00   0.00000000000000E+00  -1.03629189170235E-18  -7.64339363283982E-17  -7.74702282201005E-17
     -5.19723726565508E-15  -7.50000000000000E+00  -7.50000000000000E+00   0.00000000000000E+00   0.00000000000000E+00
     -2.29553351492025E-17  -1.25065671554479E-15  -1.27361205069399E-15  -2.00689963431335E-15
      1.60000000000000E-01
      8.00000000000000E-01   8.00000000000000E-01   0.00000000000000E+00   0.00000000000000E+00   1.34662681822914E-15
      5.82977427633368E-18   1.35245659250548E-15   7.19522000503352E-15   0.00000000000000E+00   0.00000000000000E+00
      0.00000000000000E+00   0.00000000000000E+00  -1.03628796662990E-18  -7.58934468643428E-17  -7.69297348309727E-17
     -5.18116240117856E-15  -8.00000000000000E+00  -8.00000000000000E+00   0.00000000000000E+00   0.00000000000000E+00
     -2.29555766162918E-17  -1.25257128105821E-15  -1.27552685767450E-15  -2.01405760385497E-15
      1.70000000000000E-01
      8.00000000000000E-01   8.00000000000000E-01   0.00000000000000E+00   0.00000000000000E+00   1.35049359650671E-15
      1.20449175269909E-17   1.36253851403370E-15   7.18587311076653E-15   0.00000000000000E+00   0.00000000000000E+00
      0.00000000000000E+00   0.00000000000000E+00  -1.03628397180801E-18  -7.52171540830318E-17  -7.62534380548398E-17
     -5.16442637476158E-15  -8.50000000000000E+00  -8.50000000000000E+00   0.00000000000000E+00   0.00000000000000E+00
     -2.29558262551878E-17  -1.26332924972367E-15  -1.28628507597886E-15  -2.02144673600496E-15
      1.80000000000000E-01
      8.00000000000000E-01   8.00000000000000E-01   0.00000000000000E+00   0.00000000000000E+00   1.35384722938788E-15
     -7.81257086769084E-18   1.34603465852018E-15   7.17608727962370E-15   0.00000000000000E+00   0.00000000000000E+00
      0.00000000000000E+00   0.00000000000000E+00  -1.03627991074322E-18  -7.44085700482822E-17  -7.54448499590254E-17
     -5.14702329244075E-15  -9.00000000000000E+00  -9.00000000000000E+00   0.00000000000000E+00   0.00000000000000E+00
     -2.29560839899454E-17  -1.24763372457121E-15  -1.27058980856116E-15  -2.02906398718297E-15
      1.90000000000000E-01
      8.00000000000000E-01   8.00000000000000E-01   0.00000000000000E+00   0.00000000000000E+00   1.35679579386845E-15
      1.03697250044363E-17   1.36716551887288E-15   7.16583859638411E-15   0.00000000000000E+00   0.00000000000000E+00
      0.00000000000000E+00   0.00000000000000E+00  -1.03627578548564E-18  -7.34539204448255E-17  -7.44901962303111E-17
     -5.12893249723570E-15  -9.50000000000000E+00  -9.50000000000000E+00   0.00000000000000E+00   0.00000000000000E+00
     -2.29563497376472E-17  -1.26971897290493E-15  -1.29267532264257E-15  -2.03690609914842E-15
      2.00000000000000E-01
      8.00000000000000E-01   8.00000000000000E-01   0.00000000000000E+00   0.00000000000000E+00   1.35942316717897E-15
     -1.51491740864471E-17   1.34427399309252E-15   7.15508309154372E-15   0.00000000000000E+00   0.00000000000000E+00
      0.00000000000000E+00   0.00000000000000E+00  -1.03627159651431E-18  -7.22065959426164E-17  -7.32428675391308E-17
     -5.11011362106033E-15  -1.00000000000000E+01  -1.00000000000000E+01   0.00000000000000E+00   0.00000000000000E+00
     -2.29566234039461E-17  -1.24807450214945E-15  -1.27103112555339E-15  -2.04496947048338E-15
      2.10000000000000E-01
      8.00000000000000E-01   8.00000000000000E-01   0.00000000000000E+00   0.00000000000000E+00   1.36182370428224E-15
      2.49039279953301E-18   1.36431409708177E-15   7.14375005382970E-15   0.00000000000000E+00   0.00000000000000E+00
      0.00000000000000E+00   0.00000000000000E+00  -1.03626734253382E-18  -7.01501403766723E-17  -7.11864077192062E-17
     -5.09050006021465E-15  -1.05000000000000E+01  -1.05000000000000E+01   0.00000000000000E+00   0.00000000000000E+00
     -2.29569048773961E-17  -1.27017078448517E-15  -1.29312768936257E-15  -2.05324999361505E-15
      2.20000000000000E-01
      8.00000000000000E-01   8.00000000000000E-01   0.00000000000000E+00   0.00000000000000E+00   1.36408358678307E-15
      6.30449862059841E-18   1.37038808540367E-15   7.13174018051313E-15   0.00000000000000E+00   0.00000000000000E+00
      0.00000000000000E+00   0.00000000000000E+00  -1.03626302070258E-18  -6.53374426249411E-17  -6.63737056456437E-17
     -5.06999714408883E-15  -1.10000000000000E+01  -1.10000000000000E+01   0.00000000000000E+00   0.00000000000000E+00
     -2.29571940286611E-17  -1.28105718572937E-15  -1.30401437975803E-15  -2.06174303642429E-15
      2.30000000000000E-01
      8.00000000000000E-01   8.00000000000000E-01   0.00000000000000E+00   0.00000000000000E+00   1.36626364926740E-15
      1.25479164452652E-18   1.36751844091193E-15   7.11895121099618E-15   0.00000000000000E+00   0.00000000000000E+00
      0.00000000000000E+00   0.00000000000000E+00  -1.03625862883201E-18  -5.07413365805294E-17  -5.17775952093615E-17
     -5.04850705137522E-15  -1.15000000000000E+01  -1.15000000000000E+01   0.00000000000000E+00   0.00000000000000E+00
     -2.29574907348116E-17  -1.29278335496776E-15  -1.31574084570257E-15  -2.07044415962096E-15
      2.40000000000000E-01
      8.00000000000000E-01   8.00000000000000E-01   0.00000000000000E+00   0.00000000000000E+00   1.36839466558739E-15
     -6.90405518784418E-18   1.36149061039954E-15   7.10536583896383E-15   0.00000000000000E+00   0.00000000000000E+00
      0.00000000000000E+00   0.00000000000000E+00  -1.03625417149182E-18  -1.04860863811001E-18  -2.08486280960182E-18
     -5.02601441588851E-15  -1.20000000000000E+01  -1.20000000000000E+01   0.00000000000000E+00   0.00000000000000E+00
     -2.29577949581734E-17  -1.33644795263177E-15  -1.35940574758994E-15  -2.07935142307528E-15
      2.50000000000000E-01
      8.00000000000000E-01   8.00000000000000E-01   0.00000000000000E+00   0.00000000000000E+00   1.37045962558637E-15
     -1.13836039032378E-17   1.35907602168313E-15   7.09115475352903E-15   0.00000000000000E+00   0.00000000000000E+00
      0.00000000000000E+00   0.00000000000000E+00  -1.03624966589836E-18   1.72388625537427E-16   1.71352375871529E-16
     -5.00268680549164E-15  -1.25000000000000E+01  -1.25000000000000E+01   0.00000000000000E+00   0.00000000000000E+00
     -2.29581068347117E-17  -1.50747029071995E-15  -1.53042839755466E-15  -2.08846794803738E-15
      2.60000000000000E-01
      8.00000000000000E-01   8.00000000000000E-01   0.00000000000000E+00   0.00000000000000E+00   1.37240220259114E-15
      1.64593502172645E-17   1.38886155280841E-15   7.07662256177266E-15   0.00000000000000E+00   0.00000000000000E+00
      0.00000000000000E+00   0.00000000000000E+00  -1.03624513640391E-18   7.69562058858062E-16   7.68525813721658E-16
     -4.97882224236626E-15  -1.30000000000000E+01  -1.30000000000000E+01   0.00000000000000E+00   0.00000000000000E+00
     -2.29584266206526E-17  -2.13442893990941E-15  -2.15738736653006E-15  -2.09780031940640E-15
      2.70000000000000E-01
      8.00000000000000E-01   8.00000000000000E-01   0.00000000000000E+00   0.00000000000000E+00   1.37415764374563E-15
      1.03308701634363E-17   1.38448851390907E-15   7.06203366023552E-15   0.00000000000000E+00   0.00000000000000E+00
      0.00000000000000E+00   0.00000000000000E+00  -1.03624060235588E-18   2.76872065487926E-15   2.76768441427691E-15
     -4.95467964521228E-15  -1.35000000000000E+01  -1.35000000000000E+01   0.00000000000000E+00   0.00000000000000E+00
     -2.29587545364872E-17  -4.12921417364949E-15  -4.15217292818597E-15  -2.10735401502325E-15
      2.80000000000000E-01
      8.00000000000000E-01   8.00000000000000E-01   0.00000000000000E+00   0.00000000000000E+00   1.37566348685650E-15
     -2.41543391224234E-18   1.37324805294426E-15   7.04754110052180E-15   0.00000000000000E+00   0.00000000000000E+00
      0.00000000000000E+00   0.00000000000000E+00  -1.03623607425003E-18   9.24213409127492E-15   9.24109785520067E-15
     -4.93040948551293E-15  -1.40000000000000E+01  -1.40000000000000E+01   0.00000000000000E+00   0.00000000000000E+00
     -2.29590907050838E-17  -1.05913868174398E-14  -1.06143459081449E-14  -2.11713161500888E-15
      2.90000000000000E-01
      8.00000000000000E-01   8.00000000000000E-01   0.00000000000000E+00   0.00000000000000E+00   1.37685290248494E-15
     -2.80599478426638E-17   1.34879295464228E-15   7.03321816724991E-15   0.00000000000000E+00   0.00000000000000E+00
      0.00000000000000E+00   0.00000000000000E+00  -1.03623154271803E-18   2.94777333578295E-14   2.94766971262868E-14
     -4.90608452347789E-15  -1.45000000000000E+01  -1.45000000000000E+01   0.00000000000000E+00   0.00000000000000E+00
     -2.29594351799065E-17  -3.08025306457492E-14  -3.08254900809291E-14  -2.12713364377201E-15
      3.00000000000000E-01
      8.00000000000000E-01   8.00000000000000E-01   0.00000000000000E+00   0.00000000000000E+00   1.37764952826131E-15
      1.20853718949030E-17   1.38973490015622E-15   7.01909928245148E-15   0.00000000000000E+00   0.00000000000000E+00
      0.00000000000000E+00   0.00000000000000E+00  -1.03622702123889E-18   9.04815603989658E-14   9.04805241719446E-14
     -4.88173966190767E-15  -1.50000000000000E+01  -1.50000000000000E+01   0.00000000000000E+00   0.00000000000000E+00
     -2.29597879807038E-17  -9.18472992841199E-14  -9.18702590721006E-14  -2.13735962054382E-15
      3.10000000000000E-01
      8.00000000000000E-01   8.00000000000000E-01   0.00000000000000E+00   0.00000000000000E+00   1.37795817776152E-15
     -1.82454325246545E-17   1.35971274523687E-15   7.00520312956656E-15   0.00000000000000E+00   0.00000000000000E+00
      0.00000000000000E+00   0.00000000000000E+00  -1.03622250395994E-18   2.67705284054083E-13   2.67704247831579E-13
     -4.85739447778587E-15  -1.55000000000000E+01  -1.55000000000000E+01   0.00000000000000E+00   0.00000000000000E+00
     -2.29601491136917E-17  -2.69041000427701E-13  -2.69063960576814E-13  -2.14780865178069E-15
      3.20000000000000E-01
      8.00000000000000E-01   8.00000000000000E-01   0.00000000000000E+00   0.00000000000000E+00   1.37761765923880E-15
      2.83553089708797E-18   1.38045319013588E-15   6.99154349552518E-15   0.00000000000000E+00   0.00000000000000E+00
      0.00000000000000E+00   0.00000000000000E+00  -1.03621748783923E-18   7.63470597136471E-13   7.63469560918984E-13
     -4.83306376360589E-15  -1.60000000000000E+01  -1.60000000000000E+01   0.00000000000000E+00   0.00000000000000E+00
     -2.29605185818732E-17  -7.64827053590540E-13  -7.64850014109121E-13  -2.15847973191931E-15
      3.30000000000000E-01
      8.00000000000000E-01   8.00000000000000E-01   0.00000000000000E+00   0.00000000000000E+00   1.37626482495252E-15
     -2.06482920795916E-17   1.35561653287293E-15   6.97813467006314E-15   0.00000000000000E+00   0.00000000000000E+00
      0.00000000000000E+00   0.00000000000000E+00  -1.03621233072110E-18   2.09773626439925E-12   2.09773522818692E-12
     -4.80876270837268E-15  -1.65000000000000E+01  -1.65000000000000E+01   0.00000000000000E+00   0.00000000000000E+00
     -2.29608963925955E-17  -2.09906788382340E-12  -2.09909084471980E-12  -2.16937196169048E-15
      3.40000000000000E-01
      8.00000000000000E-01   8.00000000000000E-01   0.00000000000000E+00   0.00000000000000E+00   1.37304832845479E-15
      3.14673645477725E-17   1.40451569300256E-15   6.96499508336379E-15   0.00000000000000E+00   0.00000000000000E+00
      0.00000000000000E+00   0.00000000000000E+00  -1.03620684317502E-18   5.54887193315120E-12   5.54887089694435E-12
     -4.78451023652947E-15  -1.70000000000000E+01  -1.70000000000000E+01   0.00000000000000E+00   0.00000000000000E+00
     -2.29612825680471E-17  -5.55025245135481E-12  -5.55027541263738E-12  -2.18048484683432E-15
      3.50000000000000E-01
      8.00000000000000E-01   8.00000000000000E-01   0.00000000000000E+00   0.00000000000000E+00   1.36610622566033E-15
      2.15106207965587E-18   1.36825728773999E-15   6.95215109270001E-15   0.00000000000000E+00   0.00000000000000E+00
      0.00000000000000E+00   0.00000000000000E+00  -1.03619752351524E-18   1.41162490611722E-11   1.41162480249747E-11
     -4.76033222981469E-15  -1.75000000000000E+01  -1.75000000000000E+01   0.00000000000000E+00   0.00000000000000E+00
     -2.29616771651990E-17  -1.41175933205852E-11  -1.41176162822624E-11  -2.19181886288533E-15
      3.60000000000000E-01
      8.00000000000000E-01   8.00000000000000E-01   0.00000000000000E+00   0.00000000000000E+00   1.35176142466970E-15
     -1.98603860499201E-17   1.33190103861978E-15   6.93964222166443E-15   0.00000000000000E+00   0.00000000000000E+00