DF-ISE text

Info {
  version   = 1.0
  type      = xyplot
  datasets  = [
    "time"
    "Ntop OuterVoltage" "Ntop InnerVoltage" "Ntop QuasiFermiPotential" "Ntop DisplacementCurrent" "Ntop eCurrent"
    "Ntop hCurrent" "Ntop TotalCurrent" "Ntop Charge" "Ptop OuterVoltage" "Ptop InnerVoltage"
    "Ptop QuasiFermiPotential" "Ptop DisplacementCurrent" "Ptop eCurrent" "Ptop hCurrent" "Ptop TotalCurrent"
    "Ptop Charge" "Pbot OuterVoltage" "Pbot InnerVoltage" "Pbot QuasiFermiPotential" "Pbot DisplacementCurrent"
    "Pbot eCurrent" "Pbot hCurrent" "Pbot TotalCurrent" "Pbot Charge" ]
  functions = [
    Time
    OuterVoltage InnerVoltage QuasiFermiPotential DisplacementCurrent eCurrent
    hCurrent TotalCurrent Charge OuterVoltage InnerVoltage
    QuasiFermiPotential DisplacementCurrent eCurrent hCurrent TotalCurrent
    Charge OuterVoltage InnerVoltage QuasiFermiPotential DisplacementCurrent
    eCurrent hCurrent TotalCurrent Charge ]
}

Data {
      0.00000000000000E+00
      0.00000000000000E+00   0.00000000000000E+00   0.00000000000000E+00   0.00000000000000E+00  -8.55151960420181E-26
     -4.42213163596574E-18  -4.42213172148093E-18   4.82043538327669E-15   0.00000000000000E+00   0.00000000000000E+00
      0.00000000000000E+00   0.00000000000000E+00   8.55147072553228E-26   1.08371661232912E-19   1.08371746747620E-19
     -2.90273220226179E-15   0.00000000000000E+00   0.00000000000000E+00   0.00000000000000E+00   0.00000000000000E+00
      4.71032391211928E-31   4.31375997473284E-18   4.31375997473331E-18  -1.91770318101491E-15
      0.00000000000000E+00
      0.00000000000000E+00   0.00000000000000E+00   0.00000000000000E+00   0.00000000000000E+00   3.55510539519974E-27
     -7.54463424967435E-20  -7.54463389416381E-20   4.82043538338007E-15   0.00000000000000E+00   0.00000000000000E+00
      0.00000000000000E+00   0.00000000000000E+00  -3.55131167878791E-27   1.35709227148166E-22   1.35705675836488E-22
     -2.90273220226178E-15   0.00000000000000E+00   0.00000000000000E+00   0.00000000000000E+00   0.00000000000000E+00
     -3.29751280176275E-30   7.53106332690992E-20   7.53106332658017E-20  -1.91770318111828E-15
      1.00000000000000E-01
      8.00000000000000E-02   8.00000000000000E-02   0.00000000000000E+00   0.00000000000000E+00   1.49501693328794E-16
      2.86978913934828E-19   1.49788672242729E-16   5.08222946887498E-15   0.00000000000000E+00   0.00000000000000E+00
      0.00000000000000E+00   0.00000000000000E+00  -9.93419785671338E-19  -1.35504581501960E-17  -1.45438779358673E-17
     -3.16378349039816E-15   0.00000000000000E+00   0.00000000000000E+00   0.00000000000000E+00   0.00000000000000E+00
     -2.28396109784726E-17  -1.12405183328389E-16  -1.35244794306861E-16  -1.91844597847684E-15
      2.00000000000000E-01
      1.60000000000000E-01   1.60000000000000E-01   0.00000000000000E+00   0.00000000000000E+00   2.14769746446638E-16
      6.20406453772773E-19   2.15390152900411E-16   5.33846390789724E-15   0.00000000000000E+00   0.00000000000000E+00
      0.00000000000000E+00   0.00000000000000E+00  -1.03467208025825E-18  -2.10902036892681E-17  -2.21248757695264E-17
     -3.41927544165754E-15   0.00000000000000E+00   0.00000000000000E+00   0.00000000000000E+00   0.00000000000000E+00
     -2.29524633376331E-17  -1.70312813793252E-16  -1.93265277130885E-16  -1.91918846623968E-15
      3.00000000000000E-01
      2.40000000000000E-01   2.40000000000000E-01   0.00000000000000E+00   0.00000000000000E+00   2.67716461109644E-16
      2.53842081055254E-19   2.67970303190699E-16   5.58968264115137E-15   0.00000000000000E+00   0.00000000000000E+00
      0.00000000000000E+00   0.00000000000000E+00  -1.03622003299240E-18  -2.75944115368405E-17  -2.86306315698329E-17
     -3.66975176817555E-15   0.00000000000000E+00   0.00000000000000E+00   0.00000000000000E+00   0.00000000000000E+00
     -2.29524423937183E-17  -2.16387229227148E-16  -2.39339671620866E-16  -1.91993087297580E-15
      4.00000000000000E-01
      3.20000000000000E-01   3.20000000000000E-01   0.00000000000000E+00   0.00000000000000E+00   3.14616737486039E-16
      6.57132325796964E-19   3.15273869811836E-16   5.83600963645669E-15   0.00000000000000E+00   0.00000000000000E+00
      0.00000000000000E+00   0.00000000000000E+00  -1.03627482489988E-18  -3.35568280276544E-17  -3.45931028525543E-17
     -3.91533642145530E-15   0.00000000000000E+00   0.00000000000000E+00   0.00000000000000E+00   0.00000000000000E+00
     -2.29524636555986E-17  -2.57728303303683E-16  -2.80680766959282E-16  -1.92067321500136E-15
      5.00000000000000E-01
      4.00000000000000E-01   4.00000000000000E-01   0.00000000000000E+00   0.00000000000000E+00   3.57639467991485E-16
      6.47879130577909E-19   3.58287347122063E-16   6.07723387597569E-15   0.00000000000000E+00   0.00000000000000E+00
      0.00000000000000E+00   0.00000000000000E+00  -1.03628447418475E-18  -3.91879446348733E-17  -4.02242291090580E-17
     -4.15581844867488E-15   0.00000000000000E+00   0.00000000000000E+00   0.00000000000000E+00   0.00000000000000E+00
     -2.29524876670951E-17  -2.95110630345910E-16  -3.18063118013005E-16  -1.92141542730080E-15
      6.00000000000000E-01
      4.80000000000000E-01   4.80000000000000E-01   0.00000000000000E+00   0.00000000000000E+00   3.98004169858596E-16
     -2.78990736531534E-19   3.97725179122064E-16   6.31321090366963E-15   0.00000000000000E+00   0.00000000000000E+00
      0.00000000000000E+00   0.00000000000000E+00  -1.03629295212388E-18  -4.46212876252671E-17  -4.56575805773910E-17
     -4.39105348091157E-15   0.00000000000000E+00   0.00000000000000E+00   0.00000000000000E+00   0.00000000000000E+00
     -2.29525117994132E-17  -3.29115086745260E-16  -3.52067598544673E-16  -1.92215742275805E-15
      7.00000000000000E-01
      5.60000000000000E-01   5.60000000000000E-01   0.00000000000000E+00   0.00000000000000E+00   4.36386396775168E-16
     -2.54661631380591E-19   4.36131735143787E-16   6.54442620532795E-15   0.00000000000000E+00   0.00000000000000E+00
      0.00000000000000E+00   0.00000000000000E+00  -1.03630086199048E-18  -4.99807469050210E-17  -5.10170477670115E-17
     -4.62152708887644E-15   0.00000000000000E+00   0.00000000000000E+00   0.00000000000000E+00   0.00000000000000E+00
     -2.29525359628673E-17  -3.62162151413908E-16  -3.85114687376775E-16  -1.92289911645150E-15
      8.00000000000000E-01
      6.40000000000000E-01   6.40000000000000E-01   0.00000000000000E+00   0.00000000000000E+00   4.73151084146072E-16
     -2.56432834177751E-20   4.73125440862654E-16   6.77163394351305E-15   0.00000000000000E+00   0.00000000000000E+00
      0.00000000000000E+00   0.00000000000000E+00  -1.03630838175420E-18  -5.53903821888629E-17  -5.64266905706171E-17
     -4.84799351084291E-15   0.00000000000000E+00   0.00000000000000E+00   0.00000000000000E+00   0.00000000000000E+00
     -2.29525601471973E-17  -3.93746190144839E-16  -4.16698750292036E-16  -1.92364043267014E-15
      9.00000000000000E-01
      7.20000000000000E-01   7.20000000000000E-01   0.00000000000000E+00   0.00000000000000E+00   5.08616060515699E-16
      9.76095405776396E-20   5.08713670056277E-16   6.99518655058543E-15   0.00000000000000E+00   0.00000000000000E+00
      0.00000000000000E+00   0.00000000000000E+00  -1.03631533681646E-18  -6.10081724901601E-17  -6.20444878269766E-17
     -5.07080524909793E-15   0.00000000000000E+00   0.00000000000000E+00   0.00000000000000E+00   0.00000000000000E+00
     -2.29525843462037E-17  -4.23716597883097E-16  -4.46669182229301E-16  -1.92438130148749E-15
      1.00000000000000E+00
      8.00000000000000E-01   8.00000000000000E-01   0.00000000000000E+00   0.00000000000000E+00   5.43153646609783E-16
     -6.12134152361146E-19   5.42541512457421E-16   7.21507795400692E-15   0.00000000000000E+00   0.00000000000000E+00
      0.00000000000000E+00   0.00000000000000E+00  -1.03632144752407E-18  -6.71031448559292E-17  -6.81394663034533E-17
     -5.28995630960306E-15   0.00000000000000E+00   0.00000000000000E+00   0.00000000000000E+00   0.00000000000000E+00
     -2.29526085542470E-17  -4.51449437599721E-16  -4.74402046153968E-16  -1.92512164440388E-15
      0.00000000000000E+00
      8.00000000000000E-01   8.00000000000000E-01   0.00000000000000E+00   0.00000000000000E+00   5.43153646755094E-16
      4.74222810161039E-19   5.43627869565255E-16   7.21507795400695E-15   0.00000000000000E+00   0.00000000000000E+00
      0.00000000000000E+00   0.00000000000000E+00  -1.03632159288211E-18  -6.71029930212953E-17  -6.81393146141774E-17
     -5.28995630960308E-15   0.00000000000000E+00   0.00000000000000E+00   0.00000000000000E+00   0.00000000000000E+00
     -2.29526085542470E-17  -4.52535946396831E-16  -4.75488554951078E-16  -1.92512164440388E-15
      1.00000000000000E-02
      8.00000000000000E-01   8.00000000000000E-01   0.00000000000000E+00   0.00000000000000E+00   6.97831806854968E-16
     -3.79956453820433E-18   6.94032242316764E-16   7.21967153101974E-15   0.00000000000000E+00   0.00000000000000E+00
      0.00000000000000E+00   0.00000000000000E+00  -1.03632158654968E-18  -6.64620678906508E-17  -6.74983894772004E-17
     -5.28993390752513E-15  -5.00000000000000E-01  -5.00000000000000E-01   0.00000000000000E+00   0.00000000000000E+00
     -2.29527595293221E-17  -6.03581093310241E-16  -6.26533852839563E-16  -1.92973762349461E-15
      2.00000000000000E-02
      8.00000000000000E-01   8.00000000000000E-01   0.00000000000000E+00   0.00000000000000E+00   8.26468172089260E-16
      6.20453217606039E-19   8.27088625306866E-16   7.22416685482437E-15   0.00000000000000E+00   0.00000000000000E+00
      0.00000000000000E+00   0.00000000000000E+00  -1.03632155782275E-18  -6.60166781629547E-17  -6.70529997207775E-17
     -5.28983233416382E-15  -1.00000000000000E+00  -1.00000000000000E+00   0.00000000000000E+00   0.00000000000000E+00
     -2.29529113260397E-17  -7.37082714260049E-16  -7.60035625586089E-16  -1.93433452066055E-15
      3.00000000000000E-02
      8.00000000000000E-01   8.00000000000000E-01   0.00000000000000E+00   0.00000000000000E+00   9.37913000789662E-16
     -9.61177306619179E-19   9.36951823483043E-16   7.22837657161392E-15   0.00000000000000E+00   0.00000000000000E+00
      0.00000000000000E+00   0.00000000000000E+00  -1.03632145117780E-18  -6.57551527906757E-17  -6.67914742418535E-17
     -5.28945548425944E-15  -1.50000000000000E+00  -1.50000000000000E+00   0.00000000000000E+00   0.00000000000000E+00
     -2.29530627886785E-17  -8.47207286452511E-16  -8.70160349241189E-16  -1.93892108735450E-15
      4.00000000000000E-02
      8.00000000000000E-01   8.00000000000000E-01   0.00000000000000E+00   0.00000000000000E+00   1.03167903685599E-15
      1.73488616072436E-18   1.03341392301671E-15   7.23184785534385E-15   0.00000000000000E+00   0.00000000000000E+00
      0.00000000000000E+00   0.00000000000000E+00  -1.03632112760233E-18  -6.57761159365393E-17  -6.68124370641416E-17
     -5.28831208125735E-15  -2.00000000000000E+00  -2.00000000000000E+00   0.00000000000000E+00   0.00000000000000E+00
     -2.29532155315729E-17  -9.43648270420999E-16  -9.66601485952572E-16  -1.94353577408650E-15
      5.00000000000000E-02
      8.00000000000000E-01   8.00000000000000E-01   0.00000000000000E+00   0.00000000000000E+00   1.10856662795484E-15
     -5.34052383452963E-19   1.10803257557139E-15   7.23369671898577E-15   0.00000000000000E+00   0.00000000000000E+00
      0.00000000000000E+00   0.00000000000000E+00  -1.03632032546296E-18  -6.62754944213998E-17  -6.73118147468628E-17
     -5.28546682346032E-15  -2.50000000000000E+00  -2.50000000000000E+00   0.00000000000000E+00   0.00000000000000E+00
     -2.29533712117043E-17  -1.01776738961282E-15  -1.04072076082453E-15  -1.94822989552546E-15
      6.00000000000000E-02
      8.00000000000000E-01   8.00000000000000E-01   0.00000000000000E+00   0.00000000000000E+00   1.17253687346608E-15
     -3.12952620398798E-18   1.16940734726210E-15   7.23276944992515E-15   0.00000000000000E+00   0.00000000000000E+00
      0.00000000000000E+00   0.00000000000000E+00  -1.03631872999610E-18  -6.75909083754626E-17  -6.86272271054586E-17
     -5.27972459617736E-15  -3.00000000000000E+00  -3.00000000000000E+00   0.00000000000000E+00   0.00000000000000E+00
     -2.29535311839137E-17  -1.07782658897272E-15  -1.10078012015664E-15  -1.95304485374780E-15
      7.00000000000000E-02
      8.00000000000000E-01   8.00000000000000E-01   0.00000000000000E+00   0.00000000000000E+00   1.22481844952770E-15
      5.13392853509966E-18   1.22995237806280E-15   7.22851068427136E-15   0.00000000000000E+00   0.00000000000000E+00
      0.00000000000000E+00   0.00000000000000E+00  -1.03631624478047E-18  -7.01637469288139E-17  -7.12000631735943E-17
     -5.27049310134356E-15  -3.50000000000000E+00  -3.50000000000000E+00   0.00000000000000E+00   0.00000000000000E+00
     -2.29536966710858E-17  -1.13579861821812E-15  -1.15875231488921E-15  -1.95801758292781E-15
      8.00000000000000E-02
      8.00000000000000E-01   8.00000000000000E-01   0.00000000000000E+00   0.00000000000000E+00   1.26561931083167E-15
      7.80712591381430E-19   1.26640002342305E-15   7.22151569468557E-15   0.00000000000000E+00   0.00000000000000E+00
      0.00000000000000E+00   0.00000000000000E+00  -1.03631311003546E-18  -7.41448962386580E-17  -7.51812093486935E-17
     -5.25833166454861E-15  -4.00000000000000E+00  -4.00000000000000E+00   0.00000000000000E+00   0.00000000000000E+00
     -2.29538688751827E-17  -1.16826494519918E-15  -1.19121881407436E-15  -1.96318403013693E-15
      9.00000000000000E-02
      8.00000000000000E-01   8.00000000000000E-01   0.00000000000000E+00   0.00000000000000E+00   1.29597955903777E-15
     -8.62893728948853E-19   1.29511666530883E-15   7.21270445437993E-15   0.00000000000000E+00   0.00000000000000E+00
      0.00000000000000E+00   0.00000000000000E+00  -1.03630961042122E-18  -7.86461115140347E-17  -7.96824211244560E-17
     -5.24413456451981E-15  -4.50000000000000E+00  -4.50000000000000E+00   0.00000000000000E+00   0.00000000000000E+00
     -2.29540486655119E-17  -1.19248019551886E-15  -1.21543424418437E-15  -1.96856988986011E-15
      1.00000000000000E-01
      8.00000000000000E-01   8.00000000000000E-01   0.00000000000000E+00   0.00000000000000E+00   1.31659164345141E-15
      1.28531106519351E-18   1.31787695451660E-15   7.20265052849491E-15   0.00000000000000E+00   0.00000000000000E+00
      0.00000000000000E+00   0.00000000000000E+00  -1.03630590207949E-18  -8.18705516828247E-17  -8.29068575849042E-17
     -5.22846362814662E-15  -5.00000000000000E+00  -5.00000000000000E+00   0.00000000000000E+00   0.00000000000000E+00
     -2.29542364512923E-17  -1.21201586048040E-15  -1.23497009693170E-15  -1.97418690034830E-15
      1.10000000000000E-01
      8.00000000000000E-01   8.00000000000000E-01   0.00000000000000E+00   0.00000000000000E+00   1.32980156201900E-15
     -6.95549047975833E-18   1.32284607153924E-15   7.19160799289138E-15   0.00000000000000E+00   0.00000000000000E+00
      0.00000000000000E+00   0.00000000000000E+00  -1.03630205149594E-18  -8.32679835445836E-17  -8.43042855960795E-17
     -5.21156995038646E-15  -5.50000000000000E+00  -5.50000000000000E+00   0.00000000000000E+00   0.00000000000000E+00
     -2.29544323519873E-17  -1.21558735359117E-15  -1.23854178594315E-15  -1.98003804250492E-15
      1.20000000000000E-01
      8.00000000000000E-01   8.00000000000000E-01   0.00000000000000E+00   0.00000000000000E+00   1.33871420988297E-15
      7.38889645081534E-18   1.34610310633378E-15   7.17964079904545E-15   0.00000000000000E+00   0.00000000000000E+00
      0.00000000000000E+00   0.00000000000000E+00  -1.03629808464284E-18  -8.35146011813657E-17  -8.45508992660085E-17
     -5.19351913163183E-15  -6.00000000000000E+00  -6.00000000000000E+00   0.00000000000000E+00   0.00000000000000E+00
     -2.29546363334903E-17  -1.23859757073428E-15  -1.26155220706777E-15  -1.98612166741360E-15
      1.30000000000000E-01
      8.00000000000000E-01   8.00000000000000E-01   0.00000000000000E+00   0.00000000000000E+00   1.34537720464766E-15
     -9.55121717457871E-18   1.33582598747309E-15   7.16667536310375E-15   0.00000000000000E+00   0.00000000000000E+00
      0.00000000000000E+00   0.00000000000000E+00  -1.03629400783390E-18  -8.32097607051806E-17  -8.42460547130145E-17
     -5.17424234634540E-15  -6.50000000000000E+00  -6.50000000000000E+00   0.00000000000000E+00   0.00000000000000E+00
     -2.29548482579970E-17  -1.22862508450207E-15  -1.25157993276007E-15  -1.99243301675834E-15
      1.40000000000000E-01
      8.00000000000000E-01   8.00000000000000E-01   0.00000000000000E+00   0.00000000000000E+00   1.35085305775765E-15
     -1.85701754123260E-17   1.33228288234532E-15   7.15251297532677E-15   0.00000000000000E+00   0.00000000000000E+00
      0.00000000000000E+00   0.00000000000000E+00  -1.03628981527009E-18  -8.26569955940349E-17  -8.36932854093050E-17
     -5.15354836268235E-15  -7.00000000000000E+00  -7.00000000000000E+00   0.00000000000000E+00   0.00000000000000E+00
     -2.29550678963070E-17  -1.22563452903971E-15  -1.24858959693602E-15  -1.99896461264442E-15
      1.50000000000000E-01
      8.00000000000000E-01   8.00000000000000E-01   0.00000000000000E+00   0.00000000000000E+00   1.35568460800612E-15
      1.06151323944749E-17   1.36629974040059E-15   7.13692470610227E-15   0.00000000000000E+00   0.00000000000000E+00
      0.00000000000000E+00   0.00000000000000E+00  -1.03628549910395E-18  -8.19803807822654E-17  -8.30166662813693E-17
     -5.13121632924262E-15  -7.50000000000000E+00  -7.50000000000000E+00   0.00000000000000E+00   0.00000000000000E+00
     -2.29552949985200E-17  -1.26032777912070E-15  -1.28328307411922E-15  -2.00570837685964E-15
      1.60000000000000E-01
      8.00000000000000E-01   8.00000000000000E-01   0.00000000000000E+00   0.00000000000000E+00   1.36009155410404E-15
     -4.65725461666602E-19   1.35962582864237E-15   7.11999766858367E-15   0.00000000000000E+00   0.00000000000000E+00
      0.00000000000000E+00   0.00000000000000E+00  -1.03628107497230E-18  -8.13195998200871E-17  -8.23558808950594E-17
     -5.10733434206194E-15  -8.00000000000000E+00  -8.00000000000000E+00   0.00000000000000E+00   0.00000000000000E+00
     -2.29555295535528E-17  -1.25431441819376E-15  -1.27726994774731E-15  -2.01266332652172E-15
      1.70000000000000E-01
      8.00000000000000E-01   8.00000000000000E-01   0.00000000000000E+00   0.00000000000000E+00   1.36405798062151E-15
     -1.89688976509047E-17   1.34508908297060E-15   7.10231012343916E-15   0.00000000000000E+00   0.00000000000000E+00
      0.00000000000000E+00   0.00000000000000E+00  -1.03627659132511E-18  -8.05631021627602E-17  -8.15993787540853E-17
     -5.08247038520256E-15  -8.50000000000000E+00  -8.50000000000000E+00   0.00000000000000E+00   0.00000000000000E+00
     -2.29557719315772E-17  -1.24053393228494E-15  -1.26348970421652E-15  -2.01983973823658E-15
      1.80000000000000E-01
      8.00000000000000E-01   8.00000000000000E-01   0.00000000000000E+00   0.00000000000000E+00   1.36750356183408E-15
     -5.68174887400662E-18   1.36182181296007E-15   7.08443617343073E-15   0.00000000000000E+00   0.00000000000000E+00
      0.00000000000000E+00   0.00000000000000E+00  -1.03627209195773E-18  -7.95567367732599E-17  -8.05930088652176E-17
     -5.05718771068675E-15  -9.00000000000000E+00  -9.00000000000000E+00   0.00000000000000E+00   0.00000000000000E+00
     -2.29560225251126E-17  -1.25827278156974E-15  -1.28122880409486E-15  -2.02724846274397E-15
      1.90000000000000E-01
      8.00000000000000E-01   8.00000000000000E-01   0.00000000000000E+00   0.00000000000000E+00   1.37030008420249E-15
      8.81673505563811E-18   1.37911681925813E-15   7.06665260028596E-15   0.00000000000000E+00   0.00000000000000E+00
      0.00000000000000E+00   0.00000000000000E+00  -1.03626759711004E-18  -7.78105102719250E-17  -7.88467778690350E-17
     -5.03175835536213E-15  -9.50000000000000E+00  -9.50000000000000E+00   0.00000000000000E+00   0.00000000000000E+00
     -2.29562815227504E-17  -1.27731375986634E-15  -1.30027004138909E-15  -2.03489424492380E-15
      2.00000000000000E-01
      8.00000000000000E-01   8.00000000000000E-01   0.00000000000000E+00   0.00000000000000E+00   1.37227347916684E-15
      6.41401674236102E-19   1.37291488084108E-15   7.04905435375236E-15   0.00000000000000E+00   0.00000000000000E+00
      0.00000000000000E+00   0.00000000000000E+00  -1.03626310481285E-18  -7.35988208695968E-17  -7.46350839744096E-17
     -5.00627635368296E-15  -1.00000000000000E+01  -1.00000000000000E+01   0.00000000000000E+00   0.00000000000000E+00
     -2.29565489849331E-17  -1.27532324788174E-15  -1.29827979686667E-15  -2.04277800006939E-15
      2.10000000000000E-01
      8.00000000000000E-01   8.00000000000000E-01   0.00000000000000E+00   0.00000000000000E+00   1.37334963268788E-15
      1.37139223997042E-18   1.37472102492785E-15   7.03167040049994E-15   0.00000000000000E+00   0.00000000000000E+00
      0.00000000000000E+00   0.00000000000000E+00  -1.03625863786402E-18  -6.10213352140260E-17  -6.20575938518900E-17
     -4.98077114991634E-15  -1.05000000000000E+01  -1.05000000000000E+01   0.00000000000000E+00   0.00000000000000E+00
     -2.29568249258400E-17  -1.28970660615012E-15  -1.31266343107596E-15  -2.05089925058361E-15
      2.20000000000000E-01
      8.00000000000000E-01   8.00000000000000E-01   0.00000000000000E+00   0.00000000000000E+00   1.37371850047968E-15
      1.07549016711574E-17   1.38447340215084E-15   7.01450923935423E-15   0.00000000000000E+00   0.00000000000000E+00
      0.00000000000000E+00   0.00000000000000E+00  -1.03625418084258E-18  -1.92881375627437E-17  -2.03243917435863E-17
     -4.95525214985421E-15  -1.10000000000000E+01  -1.10000000000000E+01   0.00000000000000E+00   0.00000000000000E+00
     -2.29571093458394E-17  -1.34119190106141E-15  -1.36414901040725E-15  -2.05925708950000E-15
      2.30000000000000E-01
      8.00000000000000E-01   8.00000000000000E-01   0.00000000000000E+00   0.00000000000000E+00   1.37367837214028E-15
     -6.27152158626866E-18   1.36740685055401E-15   6.99757328588048E-15   0.00000000000000E+00   0.00000000000000E+00
      0.00000000000000E+00   0.00000000000000E+00  -1.03624973775981E-18   1.23964111861543E-16   1.22927862123783E-16
     -4.92972280565464E-15  -1.15000000000000E+01  -1.15000000000000E+01   0.00000000000000E+00   0.00000000000000E+00
     -2.29574022415948E-17  -1.46737731043620E-15  -1.49033471267779E-15  -2.06785048022584E-15
      2.40000000000000E-01
      8.00000000000000E-01   8.00000000000000E-01   0.00000000000000E+00   0.00000000000000E+00   1.37343709137357E-15
      8.01154702065030E-19   1.37423824607563E-15   6.98086330012835E-15   0.00000000000000E+00   0.00000000000000E+00
      0.00000000000000E+00   0.00000000000000E+00  -1.03624530474307E-18   6.11687698916715E-16   6.10651453611972E-16
     -4.90418495743175E-15  -1.20000000000000E+01  -1.20000000000000E+01   0.00000000000000E+00   0.00000000000000E+00
     -2.29577036089702E-17  -1.96193199607864E-15  -1.98488969968761E-15  -2.07667834269662E-15
      2.50000000000000E-01
      8.00000000000000E-01   8.00000000000000E-01   0.00000000000000E+00   0.00000000000000E+00   1.37309538526507E-15
     -7.26548070330777E-18   1.36582990456176E-15   6.96437985449360E-15   0.00000000000000E+00   0.00000000000000E+00
      0.00000000000000E+00   0.00000000000000E+00  -1.03624086736047E-18   2.22983852526795E-15   2.22880228440059E-15
     -4.87864027828886E-15  -1.25000000000000E+01  -1.25000000000000E+01   0.00000000000000E+00   0.00000000000000E+00
     -2.29580134437905E-17  -3.57167417551856E-15  -3.59463218896235E-15  -2.08573957620473E-15
      2.60000000000000E-01
      8.00000000000000E-01   8.00000000000000E-01   0.00000000000000E+00   0.00000000000000E+00   1.37268985798326E-15
     -6.07274344041424E-18   1.36661711454284E-15   6.94812394926300E-15   0.00000000000000E+00   0.00000000000000E+00
      0.00000000000000E+00   0.00000000000000E+00  -1.03623648168801E-18   7.42845425410433E-15   7.42741801762265E-15
     -4.85309088465744E-15  -1.30000000000000E+01  -1.30000000000000E+01   0.00000000000000E+00   0.00000000000000E+00
     -2.29583317420082E-17  -8.77107680042348E-15  -8.79403513216549E-15  -2.09503306460556E-15
      2.70000000000000E-01
      8.00000000000000E-01   8.00000000000000E-01   0.00000000000000E+00   0.00000000000000E+00   1.37222111959523E-15
     -3.68862541676308E-17   1.33533486542760E-15   6.93209742190558E-15   0.00000000000000E+00   0.00000000000000E+00
      0.00000000000000E+00   0.00000000000000E+00  -1.03623205140951E-18   2.35653234167291E-14   2.35642871846777E-14
     -4.82753974345422E-15  -1.35000000000000E+01  -1.35000000000000E+01   0.00000000000000E+00   0.00000000000000E+00
     -2.29586584997683E-17  -2.48766633916055E-14  -2.48996220501052E-14  -2.10455767845139E-15
      2.80000000000000E-01
      8.00000000000000E-01   8.00000000000000E-01   0.00000000000000E+00   0.00000000000000E+00   1.37166044317304E-15
      1.40864295703607E-17   1.38574687274340E-15   6.91630337229715E-15   0.00000000000000E+00   0.00000000000000E+00
      0.00000000000000E+00   0.00000000000000E+00  -1.03622769941948E-18   7.19141046695398E-14   7.19130684418404E-14
     -4.80199109184238E-15  -1.40000000000000E+01  -1.40000000000000E+01   0.00000000000000E+00   0.00000000000000E+00
     -2.29589937135882E-17  -7.32758563208698E-14  -7.32988153145834E-14  -2.11431228045479E-15
      2.90000000000000E-01
      8.00000000000000E-01   8.00000000000000E-01   0.00000000000000E+00   0.00000000000000E+00   1.37093444374753E-15
      2.57136411141191E-17   1.39664808486165E-15   6.90074671223668E-15   0.00000000000000E+00   0.00000000000000E+00
      0.00000000000000E+00   0.00000000000000E+00  -1.03622331407675E-18   2.11646191422355E-13   2.11645155199041E-13
     -4.77645097131899E-15  -1.45000000000000E+01  -1.45000000000000E+01   0.00000000000000E+00   0.00000000000000E+00
     -2.29593373808759E-17  -2.13018843946522E-13  -2.13041803283902E-13  -2.12429574091770E-15
      3.00000000000000E-01
      8.00000000000000E-01   8.00000000000000E-01   0.00000000000000E+00   0.00000000000000E+00   1.36987917653289E-15
     -6.52917735289979E-18   1.36334999917999E-15   6.88543493795733E-15   0.00000000000000E+00   0.00000000000000E+00
      0.00000000000000E+00   0.00000000000000E+00  -1.03621781734235E-18   6.00937941925897E-13   6.00936905708079E-13
     -4.75092796189899E-15  -1.50000000000000E+01  -1.50000000000000E+01   0.00000000000000E+00   0.00000000000000E+00
     -2.29596895012665E-17  -6.02277296017756E-13  -6.02300255707258E-13  -2.13450697605836E-15
      3.10000000000000E-01
      8.00000000000000E-01   8.00000000000000E-01   0.00000000000000E+00   0.00000000000000E+00   1.36813671714599E-15
      1.62968037066132E-17   1.38443352085260E-15   6.87037926854699E-15   0.00000000000000E+00   0.00000000000000E+00
      0.00000000000000E+00   0.00000000000000E+00  -1.03621340946230E-18   1.64568960985470E-12   1.64568857364129E-12
     -4.72543423100825E-15  -1.55000000000000E+01  -1.55000000000000E+01   0.00000000000000E+00   0.00000000000000E+00
     -2.29600500797418E-17  -1.64705004711207E-12  -1.64707300716215E-12  -2.14494503753874E-15
      3.20000000000000E-01
      8.00000000000000E-01   8.00000000000000E-01   0.00000000000000E+00   0.00000000000000E+00   1.36493309843952E-15
     -2.59139504060231E-17   1.33901914803350E-15   6.85559639115951E-15   0.00000000000000E+00   0.00000000000000E+00
      0.00000000000000E+00   0.00000000000000E+00  -1.03620732628206E-18   4.34426944109268E-12   4.34426840488535E-12
     -4.69998707788442E-15  -1.60000000000000E+01  -1.60000000000000E+01   0.00000000000000E+00   0.00000000000000E+00
     -2.29604191336758E-17  -4.34558446361423E-12  -4.34560742403337E-12  -2.15560931327508E-15
      3.30000000000000E-01
      8.00000000000000E-01   8.00000000000000E-01   0.00000000000000E+00   0.00000000000000E+00   1.35863673168301E-15
     -1.55193266564378E-17   1.34311740502657E-15   6.84111122102722E-15   0.00000000000000E+00   0.00000000000000E+00
      0.00000000000000E+00   0.00000000000000E+00  -1.03619637817600E-18   1.10456469416604E-11   1.10456459054641E-11
     -4.67461126187645E-15  -1.65000000000000E+01  -1.65000000000000E+01   0.00000000000000E+00   0.00000000000000E+00
     -2.29607967080263E-17  -1.10469660620724E-11  -1.10469890228691E-11  -2.16649995915075E-15
      3.40000000000000E-01
      8.00000000000000E-01   8.00000000000000E-01   0.00000000000000E+00   0.00000000000000E+00   1.34599560685685E-15
      2.41338136442818E-18   1.34840898822128E-15   6.82696132277275E-15   0.00000000000000E+00   0.00000000000000E+00
      0.00000000000000E+00   0.00000000000000E+00  -1.03617356941086E-18   2.70213910783343E-11   2.70213900421607E-11
     -4.64934254246599E-15  -1.70000000000000E+01  -1.70000000000000E+01   0.00000000000000E+00   0.00000000000000E+00
     -2.29611829064531E-17  -2.70227154899658E-11  -2.70227384511487E-11  -2.17761878030677E-15
      3.50000000000000E-01
      8.00000000000000E-01   8.00000000000000E-01   0.00000000000000E+00   0.00000000000000E+00   1.32116417698698E-15
      2.94786869660032E-18   1.32411204568358E-15   6.81320388001105E-15   0.00000000000000E+00   0.00000000000000E+00
      0.00000000000000E+00   0.00000000000000E+00  -1.03612305071176E-18   6.35086446626633E-11   6.35086436265402E-11
     -4.62423296227510E-15  -1.75000000000000E+01  -1.75000000000000E+01   0.00000000000000E+00   0.00000000000000E+00
     -2.29615779510627E-17  -6.35099447770083E-11  -6.35099677385862E-11  -2.18897091773594E-15
      3.60000000000000E-01
      8.00000000000000E-01   8.00000000000000E-01   0.00000000000000E+00   0.00000000000000E+00   1.27544882135907E-15
      3.09336535138491E-18   1.27854218671045E-15   6.79992608042041E-15   0.00000000000000E+00   0.00000000000000E+00