DF-ISE text

Info {
  version   = 1.0
  type      = xyplot
  datasets  = [
    "time"
    "Ntop OuterVoltage" "Ntop InnerVoltage" "Ntop QuasiFermiPotential" "Ntop DisplacementCurrent" "Ntop eCurrent"
    "Ntop hCurrent" "Ntop TotalCurrent" "Ntop Charge" "Ptop OuterVoltage" "Ptop InnerVoltage"
    "Ptop QuasiFermiPotential" "Ptop DisplacementCurrent" "Ptop eCurrent" "Ptop hCurrent" "Ptop TotalCurrent"
    "Ptop Charge" "Pbot OuterVoltage" "Pbot InnerVoltage" "Pbot QuasiFermiPotential" "Pbot DisplacementCurrent"
    "Pbot eCurrent" "Pbot hCurrent" "Pbot TotalCurrent" "Pbot Charge" ]
  functions = [
    Time
    OuterVoltage InnerVoltage QuasiFermiPotential DisplacementCurrent eCurrent
    hCurrent TotalCurrent Charge OuterVoltage InnerVoltage
    QuasiFermiPotential DisplacementCurrent eCurrent hCurrent TotalCurrent
    Charge OuterVoltage InnerVoltage QuasiFermiPotential DisplacementCurrent
    eCurrent hCurrent TotalCurrent Charge ]
}

Data {
      0.00000000000000E+00
      0.00000000000000E+00   0.00000000000000E+00   0.00000000000000E+00   0.00000000000000E+00  -7.72289893449497E-26
     -4.28563542058493E-18  -4.28563549781392E-18   2.99249717874711E-15   0.00000000000000E+00   0.00000000000000E+00
      0.00000000000000E+00   0.00000000000000E+00   7.72280273784477E-26  -7.11527685625931E-20  -7.11526913345657E-20
     -1.07479399773188E-15   0.00000000000000E+00   0.00000000000000E+00   0.00000000000000E+00   0.00000000000000E+00
      9.42257193379865E-31   4.35678818914754E-18   4.35678818914848E-18  -1.91770318101522E-15
      0.00000000000000E+00
      0.00000000000000E+00   0.00000000000000E+00   0.00000000000000E+00   0.00000000000000E+00  -5.69883734431077E-26
      8.99546266623207E-20   8.99545696739473E-20   2.99249717885049E-15   0.00000000000000E+00   0.00000000000000E+00
      0.00000000000000E+00   0.00000000000000E+00   5.69945012069562E-26   1.76222138782446E-20   1.76222708727458E-20
     -1.07479399773190E-15   0.00000000000000E+00   0.00000000000000E+00   0.00000000000000E+00   0.00000000000000E+00
     -5.65373332847365E-30  -1.07576840541039E-19  -1.07576840546693E-19  -1.91770318111860E-15
      1.00000000000000E-01
      8.00000000000000E-02   8.00000000000000E-02   0.00000000000000E+00   0.00000000000000E+00   1.49755632349183E-16
     -1.57167282153094E-19   1.49598465067030E-16   3.07829259928486E-15   0.00000000000000E+00   0.00000000000000E+00
      0.00000000000000E+00   0.00000000000000E+00  -9.93419823417334E-19  -1.38120679021939E-17  -1.48054877256113E-17
     -1.15984662080647E-15   0.00000000000000E+00   0.00000000000000E+00   0.00000000000000E+00   0.00000000000000E+00
     -2.28396109791843E-17  -1.11953366362235E-16  -1.34792977341419E-16  -1.91844597847839E-15
      2.00000000000000E-01
      1.60000000000000E-01   1.60000000000000E-01   0.00000000000000E+00   0.00000000000000E+00   2.15005685030153E-16
     -4.60638036000252E-21   2.15001078649793E-16   3.16076527228091E-15   0.00000000000000E+00   0.00000000000000E+00
      0.00000000000000E+00   0.00000000000000E+00  -1.03467210407267E-18  -2.13035424282936E-17  -2.23382145323663E-17
     -1.24157680603692E-15   0.00000000000000E+00   0.00000000000000E+00   0.00000000000000E+00   0.00000000000000E+00
     -2.29524633388503E-17  -1.69710400778577E-16  -1.92662864117427E-16  -1.91918846624399E-15
      3.00000000000000E-01
      2.40000000000000E-01   2.40000000000000E-01   0.00000000000000E+00   0.00000000000000E+00   2.67972993377220E-16
     -1.38842600615517E-19   2.67834150776605E-16   3.24056269707007E-15   0.00000000000000E+00   0.00000000000000E+00
      0.00000000000000E+00   0.00000000000000E+00  -1.03622005458525E-18  -2.78347870494837E-17  -2.88710071040690E-17
     -1.32063182408314E-15   0.00000000000000E+00   0.00000000000000E+00   0.00000000000000E+00   0.00000000000000E+00
     -2.29524423937160E-17  -2.16010701278820E-16  -2.38963143672536E-16  -1.91993087298693E-15
      4.00000000000000E-01
      3.20000000000000E-01   3.20000000000000E-01   0.00000000000000E+00   0.00000000000000E+00   3.14970406576969E-16
      5.50257210941699E-19   3.15520663787911E-16   3.31811303373084E-15   0.00000000000000E+00   0.00000000000000E+00
      0.00000000000000E+00   0.00000000000000E+00  -1.03627485087333E-18  -3.38896712014364E-17  -3.49259460523097E-17
     -1.39743981870153E-15   0.00000000000000E+00   0.00000000000000E+00   0.00000000000000E+00   0.00000000000000E+00
     -2.29524636555996E-17  -2.57642254080001E-16  -2.80594717735601E-16  -1.92067321502931E-15
      5.00000000000000E-01
      4.00000000000000E-01   4.00000000000000E-01   0.00000000000000E+00   0.00000000000000E+00   3.58058031834560E-16
      2.93088921831591E-19   3.58351120756392E-16   3.39368749298791E-15   0.00000000000000E+00   0.00000000000000E+00
      0.00000000000000E+00   0.00000000000000E+00  -1.03628450300962E-18  -3.95744325504155E-17  -4.06107170534251E-17
     -1.47227206561819E-15   0.00000000000000E+00   0.00000000000000E+00   0.00000000000000E+00   0.00000000000000E+00
     -2.29524876670974E-17  -2.94787916035869E-16  -3.17740403702967E-16  -1.92141542736972E-15
      6.00000000000000E-01
      4.80000000000000E-01   4.80000000000000E-01   0.00000000000000E+00   0.00000000000000E+00   3.98386198962869E-16
     -9.90872725714340E-20   3.98287111690298E-16   3.46743022397822E-15   0.00000000000000E+00   0.00000000000000E+00
      0.00000000000000E+00   0.00000000000000E+00  -1.03629298532652E-18  -4.50110910910516E-17  -4.60473840763781E-17
     -1.54527280105145E-15   0.00000000000000E+00   0.00000000000000E+00   0.00000000000000E+00   0.00000000000000E+00
     -2.29525117994189E-17  -3.29287215814501E-16  -3.52239727613920E-16  -1.92215742292678E-15
      7.00000000000000E-01
      5.60000000000000E-01   5.60000000000000E-01   0.00000000000000E+00   0.00000000000000E+00   4.36619122107036E-16
      2.95107441130016E-19   4.36914229548166E-16   3.53936764784313E-15   0.00000000000000E+00   0.00000000000000E+00
      0.00000000000000E+00   0.00000000000000E+00  -1.03630090030767E-18  -5.01823342578103E-17  -5.12186351581180E-17
     -1.61646853097752E-15   0.00000000000000E+00   0.00000000000000E+00   0.00000000000000E+00   0.00000000000000E+00
     -2.29525359628812E-17  -3.62743058427167E-16  -3.85695594390048E-16  -1.92289911686561E-15
      8.00000000000000E-01
      6.40000000000000E-01   6.40000000000000E-01   0.00000000000000E+00   0.00000000000000E+00   4.73143106208493E-16
     -4.94820714272346E-19   4.72648285494221E-16   3.60940659126385E-15   0.00000000000000E+00   0.00000000000000E+00
      0.00000000000000E+00   0.00000000000000E+00  -1.03630844834097E-18  -5.53650437199634E-17  -5.64013521683043E-17
     -1.68576615756383E-15   0.00000000000000E+00   0.00000000000000E+00   0.00000000000000E+00   0.00000000000000E+00
     -2.29525601472312E-17  -3.93294373178685E-16  -4.16246933325916E-16  -1.92364043370002E-15
      9.00000000000000E-01
      7.20000000000000E-01   7.20000000000000E-01   0.00000000000000E+00   0.00000000000000E+00   5.08287162477406E-16
      5.02669057322358E-19   5.08789831534728E-16   3.67733831040846E-15   0.00000000000000E+00   0.00000000000000E+00
      0.00000000000000E+00   0.00000000000000E+00  -1.03631540803218E-18  -6.06755739661612E-17  -6.17118893741934E-17
     -1.75295700629587E-15   0.00000000000000E+00   0.00000000000000E+00   0.00000000000000E+00   0.00000000000000E+00
     -2.29525843462896E-17  -4.24125357814245E-16  -4.47077942160535E-16  -1.92438130411259E-15
      1.00000000000000E+00
      8.00000000000000E-01   8.00000000000000E-01   0.00000000000000E+00   0.00000000000000E+00   5.42407523043328E-16
      8.22461151343177E-19   5.43229984194671E-16   3.74288943110127E-15   0.00000000000000E+00   0.00000000000000E+00
      0.00000000000000E+00   0.00000000000000E+00  -1.03632155003756E-18  -6.63501073618604E-17  -6.73864289118979E-17
     -1.81776777978409E-15   0.00000000000000E+00   0.00000000000000E+00   0.00000000000000E+00   0.00000000000000E+00
     -2.29526085544730E-17  -4.52890946728300E-16  -4.75843555282773E-16  -1.92512165131718E-15
      0.00000000000000E+00
      8.00000000000000E-01   8.00000000000000E-01   0.00000000000000E+00   0.00000000000000E+00   5.42407523177249E-16
      5.67858897616169E-19   5.42975382074865E-16   3.74288943110129E-15   0.00000000000000E+00   0.00000000000000E+00
      0.00000000000000E+00   0.00000000000000E+00  -1.03632168398370E-18  -6.63429376054710E-17  -6.73792592894547E-17
     -1.81776777978409E-15   0.00000000000000E+00   0.00000000000000E+00   0.00000000000000E+00   0.00000000000000E+00
     -2.29526085544731E-17  -4.52643514230937E-16  -4.75596122785410E-16  -1.92512165131718E-15
      1.00000000000000E-02
      8.00000000000000E-01   8.00000000000000E-01   0.00000000000000E+00   0.00000000000000E+00   6.97081654472355E-16
     -2.00812600367288E-18   6.95073528468682E-16   3.74748379309919E-15   0.00000000000000E+00   0.00000000000000E+00
      0.00000000000000E+00   0.00000000000000E+00  -1.03632167774384E-18  -6.56960230404024E-17  -6.67323447181463E-17
     -1.81774612966657E-15  -5.00000000000000E-01  -5.00000000000000E-01   0.00000000000000E+00   0.00000000000000E+00
     -2.29527595306352E-17  -6.05388424219901E-16  -6.28341183750536E-16  -1.92973766343262E-15
      2.00000000000000E-02
      8.00000000000000E-01   8.00000000000000E-01   0.00000000000000E+00   0.00000000000000E+00   8.25700322917425E-16
      1.02942501827580E-18   8.26729747935701E-16   3.75198266435509E-15   0.00000000000000E+00   0.00000000000000E+00
      0.00000000000000E+00   0.00000000000000E+00  -1.03632164944064E-18  -6.52598279880260E-17  -6.62961496374666E-17
     -1.81764795702988E-15  -1.00000000000000E+00  -1.00000000000000E+00   0.00000000000000E+00   0.00000000000000E+00
     -2.29529113321958E-17  -7.37480686966038E-16  -7.60433598298234E-16  -1.93433470732521E-15
      3.00000000000000E-02
      8.00000000000000E-01   8.00000000000000E-01   0.00000000000000E+00   0.00000000000000E+00   9.37085324188562E-16
      5.53939026587634E-19   9.37639263215150E-16   3.75620582204142E-15   0.00000000000000E+00   0.00000000000000E+00
      0.00000000000000E+00   0.00000000000000E+00  -1.03632154446509E-18  -6.50010850789220E-17  -6.60374066233871E-17
     -1.81728403056702E-15  -1.50000000000000E+00  -1.50000000000000E+00   0.00000000000000E+00   0.00000000000000E+00
     -2.29530628119592E-17  -8.48648793779803E-16  -8.71601856591763E-16  -1.93892179147440E-15
      4.00000000000000E-02
      8.00000000000000E-01   8.00000000000000E-01   0.00000000000000E+00   0.00000000000000E+00   1.03070329734289E-15
     -1.76922576370270E-18   1.02893407157919E-15   3.75971989574628E-15   0.00000000000000E+00   0.00000000000000E+00
      0.00000000000000E+00   0.00000000000000E+00  -1.03632122658664E-18  -6.50183985143994E-17  -6.60547197409860E-17
     -1.81618198346857E-15  -2.00000000000000E+00  -2.00000000000000E+00   0.00000000000000E+00   0.00000000000000E+00
     -2.29532156024184E-17  -9.39926136235785E-16  -9.62879351838203E-16  -1.94353791227770E-15
      5.00000000000000E-02
      8.00000000000000E-01   8.00000000000000E-01   0.00000000000000E+00   0.00000000000000E+00   1.10728430989945E-15
     -2.71050410049970E-18   1.10457380579895E-15   3.76168303468683E-15   0.00000000000000E+00   0.00000000000000E+00
      0.00000000000000E+00   0.00000000000000E+00  -1.03632044079916E-18  -6.54844664446014E-17  -6.65207868854006E-17
     -1.81344778958579E-15  -2.50000000000000E+00  -2.50000000000000E+00   0.00000000000000E+00   0.00000000000000E+00
     -2.29533713892843E-17  -1.01509964752427E-15  -1.03805301891355E-15  -1.94823524510104E-15
      6.00000000000000E-02
      8.00000000000000E-01   8.00000000000000E-01   0.00000000000000E+00   0.00000000000000E+00   1.17077497773906E-15
     -9.94584535797100E-18   1.16082913238109E-15   3.76100061099920E-15   0.00000000000000E+00   0.00000000000000E+00
      0.00000000000000E+00   0.00000000000000E+00  -1.03631888079332E-18  -6.67367555152607E-17  -6.77730743960540E-17
     -1.80794457994038E-15  -3.00000000000000E+00  -3.00000000000000E+00   0.00000000000000E+00   0.00000000000000E+00
     -2.29535315555806E-17  -1.07010252642946E-15  -1.09305605798504E-15  -1.95305603105882E-15
      7.00000000000000E-02
      8.00000000000000E-01   8.00000000000000E-01   0.00000000000000E+00   0.00000000000000E+00   1.22254729705833E-15
     -1.44001971731925E-18   1.22110727734102E-15   3.75713986030574E-15   0.00000000000000E+00   0.00000000000000E+00
      0.00000000000000E+00   0.00000000000000E+00  -1.03631644763881E-18  -6.91821996894896E-17  -7.02185161371284E-17
     -1.79910261702982E-15  -3.50000000000000E+00  -3.50000000000000E+00   0.00000000000000E+00   0.00000000000000E+00
     -2.29536973258806E-17  -1.12793506387801E-15  -1.15088876120389E-15  -1.95803724327592E-15
      8.00000000000000E-02
      8.00000000000000E-01   8.00000000000000E-01   0.00000000000000E+00   0.00000000000000E+00   1.26294563490057E-15
     -6.41273597321064E-18   1.25653289892736E-15   3.75066274565136E-15   0.00000000000000E+00   0.00000000000000E+00
      0.00000000000000E+00   0.00000000000000E+00  -1.03631336878864E-18  -7.29699075049246E-17  -7.40062208737133E-17
     -1.78744862407710E-15  -4.00000000000000E+00  -4.00000000000000E+00   0.00000000000000E+00   0.00000000000000E+00
     -2.29538698789347E-17  -1.15957280817472E-15  -1.18252667805365E-15  -1.96321412157425E-15
      9.00000000000000E-02
      8.00000000000000E-01   8.00000000000000E-01   0.00000000000000E+00   0.00000000000000E+00   1.29315327739572E-15
     -2.76507624960078E-18   1.29038820114612E-15   3.74246864847989E-15   0.00000000000000E+00   0.00000000000000E+00
      0.00000000000000E+00   0.00000000000000E+00  -1.03630992408585E-18  -7.73170042573280E-17  -7.83533141814139E-17
     -1.77385650034018E-15  -4.50000000000000E+00  -4.50000000000000E+00   0.00000000000000E+00   0.00000000000000E+00
     -2.29540500772296E-17  -1.18908083688748E-15  -1.21203488696471E-15  -1.96861214813972E-15
      1.00000000000000E-01
      8.00000000000000E-01   8.00000000000000E-01   0.00000000000000E+00   0.00000000000000E+00   1.31385559849022E-15
     -6.84778885446656E-18   1.30700780963575E-15   3.73314515384256E-15   0.00000000000000E+00   0.00000000000000E+00
      0.00000000000000E+00   0.00000000000000E+00  -1.03630627216306E-18  -8.05217928089695E-17  -8.15580990811326E-17
     -1.75890161495980E-15  -5.00000000000000E+00  -5.00000000000000E+00   0.00000000000000E+00   0.00000000000000E+00
     -2.29542383462087E-17  -1.20249547220841E-15  -1.22544971055462E-15  -1.97424353888275E-15
      1.10000000000000E-01
      8.00000000000000E-01   8.00000000000000E-01   0.00000000000000E+00   0.00000000000000E+00   1.32718843314748E-15
     -2.87678427797722E-19   1.32690075471968E-15   3.72298565487326E-15   0.00000000000000E+00   0.00000000000000E+00
      0.00000000000000E+00   0.00000000000000E+00  -1.03630248382107E-18  -8.19440721590255E-17  -8.29803746428466E-17
     -1.74287343218362E-15  -5.50000000000000E+00  -5.50000000000000E+00   0.00000000000000E+00   0.00000000000000E+00
     -2.29544348374189E-17  -1.22096594523941E-15  -1.24392038007683E-15  -1.98011222268965E-15
      1.20000000000000E-01
      8.00000000000000E-01   8.00000000000000E-01   0.00000000000000E+00   0.00000000000000E+00   1.33612781133711E-15
      4.67072100335466E-18   1.34079853234046E-15   3.71212381242406E-15   0.00000000000000E+00   0.00000000000000E+00
      0.00000000000000E+00   0.00000000000000E+00  -1.03629859067310E-18  -8.21688479352560E-17  -8.32051465259291E-17
     -1.72590569642049E-15  -6.00000000000000E+00  -6.00000000000000E+00   0.00000000000000E+00   0.00000000000000E+00
     -2.29546395697417E-17  -1.23463874624479E-15  -1.25759338581453E-15  -1.98621811600356E-15
      1.30000000000000E-01
      8.00000000000000E-01   8.00000000000000E-01   0.00000000000000E+00   0.00000000000000E+00   1.34269116158378E-15
      4.52971647970224E-18   1.34722087806348E-15   3.70060465314815E-15   0.00000000000000E+00   0.00000000000000E+00
      0.00000000000000E+00   0.00000000000000E+00  -1.03629460739062E-18  -8.18138995392368E-17  -8.28501941466274E-17
     -1.70804557837564E-15  -6.50000000000000E+00  -6.50000000000000E+00   0.00000000000000E+00   0.00000000000000E+00
     -2.29548524939216E-17  -1.24141583142293E-15  -1.26437068391685E-15  -1.99255907477252E-15
      1.40000000000000E-01
      8.00000000000000E-01   8.00000000000000E-01   0.00000000000000E+00   0.00000000000000E+00   1.34791171712965E-15
     -4.06564112550897E-19   1.34750515301710E-15   3.68840957047622E-15   0.00000000000000E+00   0.00000000000000E+00
      0.00000000000000E+00   0.00000000000000E+00  -1.03629053991412E-18  -8.11081536896825E-17  -8.21444442295966E-17
     -1.68927798395629E-15  -7.00000000000000E+00  -7.00000000000000E+00   0.00000000000000E+00   0.00000000000000E+00
     -2.29550735152922E-17  -1.24240563527221E-15  -1.26536070878750E-15  -1.99913158651992E-15
      1.50000000000000E-01
      8.00000000000000E-01   8.00000000000000E-01   0.00000000000000E+00   0.00000000000000E+00   1.35229632326213E-15
     -7.60437415880758E-18   1.34469194910333E-15   3.67546022339050E-15   0.00000000000000E+00   0.00000000000000E+00
      0.00000000000000E+00   0.00000000000000E+00  -1.03628638838656E-18  -8.02417619963051E-17  -8.12780483846917E-17
     -1.66952929393930E-15  -7.50000000000000E+00  -7.50000000000000E+00   0.00000000000000E+00   0.00000000000000E+00
     -2.29553024987581E-17  -1.24045859821988E-15  -1.26341390071864E-15  -2.00593092945119E-15
      1.60000000000000E-01
      8.00000000000000E-01   8.00000000000000E-01   0.00000000000000E+00   0.00000000000000E+00   1.35611511561537E-15
      4.01470034090185E-18   1.36012981595627E-15   3.66162586748562E-15   0.00000000000000E+00   0.00000000000000E+00
      0.00000000000000E+00   0.00000000000000E+00  -1.03628214919516E-18  -7.92419663306614E-17  -8.02782484798566E-17
     -1.64867445182261E-15  -8.00000000000000E+00  -8.00000000000000E+00   0.00000000000000E+00   0.00000000000000E+00
     -2.29555392766586E-17  -1.25689602819976E-15  -1.27985156747642E-15  -2.01295141566301E-15
      1.70000000000000E-01
      8.00000000000000E-01   8.00000000000000E-01   0.00000000000000E+00   0.00000000000000E+00   1.35951214659022E-15
     -1.48322249322231E-17   1.34467992165800E-15   3.64678798264919E-15   0.00000000000000E+00   0.00000000000000E+00
      0.00000000000000E+00   0.00000000000000E+00  -1.03627782067897E-18  -7.81314252462545E-17  -7.91677030669334E-17
     -1.62660000395265E-15  -8.50000000000000E+00  -8.50000000000000E+00   0.00000000000000E+00   0.00000000000000E+00
     -2.29557837021388E-17  -1.24255643488893E-15  -1.26551221859107E-15  -2.02018797869653E-15
      1.80000000000000E-01
      8.00000000000000E-01   8.00000000000000E-01   0.00000000000000E+00   0.00000000000000E+00   1.36255529702314E-15
     -1.15440421706433E-17   1.35101125485249E-15   3.63101033653003E-15   0.00000000000000E+00   0.00000000000000E+00
      0.00000000000000E+00   0.00000000000000E+00  -1.03627341506756E-18  -7.68895360129441E-17  -7.79258094280116E-17
     -1.60337018196397E-15  -9.00000000000000E+00  -9.00000000000000E+00   0.00000000000000E+00   0.00000000000000E+00
     -2.29560357840212E-17  -1.25012940964046E-15  -1.27308544542448E-15  -2.02764015456605E-15
      1.90000000000000E-01
      8.00000000000000E-01   8.00000000000000E-01   0.00000000000000E+00   0.00000000000000E+00   1.36525206173632E-15
      1.11501382302656E-17   1.37640219996658E-15   3.61462736715109E-15   0.00000000000000E+00   0.00000000000000E+00
      0.00000000000000E+00   0.00000000000000E+00  -1.03626896231723E-18  -7.52029028315608E-17  -7.62391717938780E-17
     -1.57931333866659E-15  -9.50000000000000E+00  -9.50000000000000E+00   0.00000000000000E+00   0.00000000000000E+00
     -2.29562957539295E-17  -1.27720673241878E-15  -1.30016302817271E-15  -2.03531402848450E-15
      2.00000000000000E-01
      8.00000000000000E-01   8.00000000000000E-01   0.00000000000000E+00   0.00000000000000E+00   1.36757087249791E-15
     -4.87364759812219E-18   1.36269722489979E-15   3.59802866918486E-15   0.00000000000000E+00   0.00000000000000E+00
      0.00000000000000E+00   0.00000000000000E+00  -1.03626449290272E-18  -7.20296432014233E-17  -7.30659076943260E-17
     -1.55481154336592E-15  -1.00000000000000E+01  -1.00000000000000E+01   0.00000000000000E+00   0.00000000000000E+00
     -2.29565638944800E-17  -1.26667475331098E-15  -1.28963131720546E-15  -2.04321712581893E-15
      2.10000000000000E-01
      8.00000000000000E-01   8.00000000000000E-01   0.00000000000000E+00   0.00000000000000E+00   1.36949238855471E-15
     -1.25664288274693E-17   1.35692595972724E-15   3.58145803585438E-15   0.00000000000000E+00   0.00000000000000E+00
      0.00000000000000E+00   0.00000000000000E+00  -1.03626002469532E-18  -6.34077574404063E-17  -6.44440174651016E-17
     -1.53010430199156E-15  -1.05000000000000E+01  -1.05000000000000E+01   0.00000000000000E+00   0.00000000000000E+00
     -2.29568403805972E-17  -1.26952510188154E-15  -1.29248194226214E-15  -2.05135373386283E-15
      2.20000000000000E-01
      8.00000000000000E-01   8.00000000000000E-01   0.00000000000000E+00   0.00000000000000E+00   1.37100315937926E-15
     -5.78164283980482E-18   1.36522151653945E-15   3.56502596852607E-15   0.00000000000000E+00   0.00000000000000E+00
      0.00000000000000E+00   0.00000000000000E+00  -1.03625555080856E-18  -3.52026833915275E-17  -3.62389389423360E-17
     -1.50530080309893E-15  -1.10000000000000E+01  -1.10000000000000E+01   0.00000000000000E+00   0.00000000000000E+00
     -2.29571252876816E-17  -1.30602545230943E-15  -1.32898257759712E-15  -2.05972516542714E-15
      2.30000000000000E-01
      8.00000000000000E-01   8.00000000000000E-01   0.00000000000000E+00   0.00000000000000E+00   1.37209316962570E-15
     -6.23118142424273E-18   1.36586198820145E-15   3.54877696327311E-15   0.00000000000000E+00   0.00000000000000E+00
      0.00000000000000E+00   0.00000000000000E+00  -1.03625110816877E-18   6.21905652533373E-17   6.11543141451685E-17
     -1.48044569289155E-15  -1.15000000000000E+01  -1.15000000000000E+01   0.00000000000000E+00   0.00000000000000E+00
     -2.29574186424037E-17  -1.40405888370422E-15  -1.42701630234662E-15  -2.06833127038157E-15
      2.40000000000000E-01
      8.00000000000000E-01   8.00000000000000E-01   0.00000000000000E+00   0.00000000000000E+00   1.37278159115705E-15
     -1.38316715382382E-17   1.35894991961881E-15   3.53272895284725E-15   0.00000000000000E+00   0.00000000000000E+00
      0.00000000000000E+00   0.00000000000000E+00  -1.03624667648218E-18   3.96475200617664E-16   3.95438953941181E-16
     -1.45555764224043E-15  -1.20000000000000E+01  -1.20000000000000E+01   0.00000000000000E+00   0.00000000000000E+00
     -2.29577204522155E-17  -1.73143115310778E-15  -1.75438887355999E-15  -2.07717131060682E-15
      2.50000000000000E-01
      8.00000000000000E-01   8.00000000000000E-01   0.00000000000000E+00   0.00000000000000E+00   1.37313254238334E-15
     -2.70566886686234E-19   1.37286197549665E-15   3.51688982538957E-15   0.00000000000000E+00   0.00000000000000E+00
      0.00000000000000E+00   0.00000000000000E+00  -1.03624224082438E-18   1.51483319953791E-15   1.51379695729709E-15
     -1.43064550809995E-15  -1.25000000000000E+01  -1.25000000000000E+01   0.00000000000000E+00   0.00000000000000E+00
     -2.29580307174120E-17  -2.86370090207633E-15  -2.88665893279374E-15  -2.08624431728964E-15
      2.60000000000000E-01
      8.00000000000000E-01   8.00000000000000E-01   0.00000000000000E+00   0.00000000000000E+00   1.37322953068061E-15
      3.55548523517295E-18   1.37678501591578E-15   3.50126385709613E-15   0.00000000000000E+00   0.00000000000000E+00
      0.00000000000000E+00   0.00000000000000E+00  -1.03623782725645E-18   5.13924534786941E-15   5.13820911004216E-15
     -1.40571463378090E-15  -1.30000000000000E+01  -1.30000000000000E+01   0.00000000000000E+00   0.00000000000000E+00
     -2.29583494356011E-17  -6.49203577652235E-15  -6.51499412595795E-15  -2.09554922331523E-15
      2.70000000000000E-01
      8.00000000000000E-01   8.00000000000000E-01   0.00000000000000E+00   0.00000000000000E+00   1.37313760008035E-15
     -4.77520363817692E-19   1.37266007971653E-15   3.48585434696945E-15   0.00000000000000E+00   0.00000000000000E+00
      0.00000000000000E+00   0.00000000000000E+00  -1.03623343739001E-18   1.64920207384695E-14   1.64909845050321E-14
     -1.38076943404989E-15  -1.35000000000000E+01  -1.35000000000000E+01   0.00000000000000E+00   0.00000000000000E+00
     -2.29586766033807E-17  -1.78406859081453E-14  -1.78636445847487E-14  -2.10508491291956E-15
      2.80000000000000E-01
      8.00000000000000E-01   8.00000000000000E-01   0.00000000000000E+00   0.00000000000000E+00   1.37288279799611E-15
     -3.16285915037879E-17   1.34125420649232E-15   3.47066490206389E-15   0.00000000000000E+00   0.00000000000000E+00
      0.00000000000000E+00   0.00000000000000E+00  -1.03622905473699E-18   5.08268691534750E-14   5.08258329244203E-14
     -1.35581465773283E-15  -1.40000000000000E+01  -1.40000000000000E+01   0.00000000000000E+00   0.00000000000000E+00
     -2.29590122170922E-17  -5.21441281186958E-14  -5.21670871309128E-14  -2.11485024433107E-15
      2.90000000000000E-01
      8.00000000000000E-01   8.00000000000000E-01   0.00000000000000E+00   0.00000000000000E+00   1.37243884063708E-15
     -9.57737305760364E-18   1.36286146757947E-15   3.45570030419123E-15   0.00000000000000E+00   0.00000000000000E+00
      0.00000000000000E+00   0.00000000000000E+00  -1.03622463198304E-18   1.51019651084104E-13   1.51018614859472E-13
     -1.33085623517372E-15  -1.45000000000000E+01  -1.45000000000000E+01   0.00000000000000E+00   0.00000000000000E+00
     -2.29593562734734E-17  -1.52358516970778E-13  -1.52381476327051E-13  -2.12484406901751E-15
      3.00000000000000E-01
      8.00000000000000E-01   8.00000000000000E-01   0.00000000000000E+00   0.00000000000000E+00   1.37169721923903E-15
     -2.08988296938957E-17   1.35079838954513E-15   3.44096735424778E-15   0.00000000000000E+00   0.00000000000000E+00
      0.00000000000000E+00   0.00000000000000E+00  -1.03621965511404E-18   4.32943142320840E-13   4.32942106101185E-13
     -1.30590209007327E-15  -1.50000000000000E+01  -1.50000000000000E+01   0.00000000000000E+00   0.00000000000000E+00
     -2.29597087707795E-17  -4.34269944781960E-13  -4.34292904490731E-13  -2.13506526417451E-15
      3.10000000000000E-01
      8.00000000000000E-01   8.00000000000000E-01   0.00000000000000E+00   0.00000000000000E+00   1.37039288442619E-15
      1.00410167220192E-17   1.38043390114821E-15   3.42647593254075E-15   0.00000000000000E+00   0.00000000000000E+00
      0.00000000000000E+00   0.00000000000000E+00  -1.03621474231700E-18   1.19734259740052E-12   1.19734156118577E-12
     -1.28096312974778E-15  -1.55000000000000E+01  -1.55000000000000E+01   0.00000000000000E+00   0.00000000000000E+00
     -2.29600697112243E-17  -1.19869903501721E-12  -1.19872199508692E-12  -2.14551280279296E-15
      3.20000000000000E-01
      8.00000000000000E-01   8.00000000000000E-01   0.00000000000000E+00   0.00000000000000E+00   1.36793557748762E-15
     -1.69252883831570E-17   1.35101028910446E-15   3.41224052052875E-15   0.00000000000000E+00   0.00000000000000E+00
      0.00000000000000E+00   0.00000000000000E+00  -1.03620973933506E-18   3.19282661870352E-12   3.19282558249378E-12
     -1.25605461124428E-15  -1.60000000000000E+01  -1.60000000000000E+01   0.00000000000000E+00   0.00000000000000E+00
     -2.29604391064240E-17  -3.19415363234377E-12  -3.19417659278288E-12  -2.15618590928448E-15
      3.30000000000000E-01
      8.00000000000000E-01   8.00000000000000E-01   0.00000000000000E+00   0.00000000000000E+00   1.36306030936611E-15
      3.56881936085664E-17   1.39874850297467E-15   3.39828254080700E-15   0.00000000000000E+00   0.00000000000000E+00
      0.00000000000000E+00   0.00000000000000E+00  -1.03620131841218E-18   8.20319413767483E-12   8.20319310147351E-12
     -1.23119814422970E-15  -1.65000000000000E+01  -1.65000000000000E+01   0.00000000000000E+00   0.00000000000000E+00
     -2.29608169892730E-17  -8.20456888915945E-12  -8.20459184997644E-12  -2.16708439657731E-15
      3.40000000000000E-01
      8.00000000000000E-01   8.00000000000000E-01   0.00000000000000E+00   0.00000000000000E+00   1.35319064925124E-15
     -9.02180022975329E-18   1.34416884902149E-15   3.38463407125113E-15   0.00000000000000E+00   0.00000000000000E+00
      0.00000000000000E+00   0.00000000000000E+00  -1.03618489858042E-18   2.02868707678409E-11   2.02868697316560E-11
     -1.20642470702782E-15  -1.70000000000000E+01  -1.70000000000000E+01   0.00000000000000E+00   0.00000000000000E+00
     -2.29612034385685E-17  -2.02881909393013E-11  -2.02882139005048E-11  -2.17820936422331E-15
      3.50000000000000E-01
      8.00000000000000E-01   8.00000000000000E-01   0.00000000000000E+00   0.00000000000000E+00   1.33352405131887E-15
      1.19373436017962E-17   1.34546139492066E-15   3.37134372938676E-15   0.00000000000000E+00   0.00000000000000E+00
      0.00000000000000E+00   0.00000000000000E+00  -1.03614927813249E-18   4.82274891259483E-11   4.82274880897991E-11
     -1.18177916834569E-15  -1.75000000000000E+01  -1.75000000000000E+01   0.00000000000000E+00   0.00000000000000E+00
     -2.29615986272941E-17  -4.82288105895959E-11  -4.82288335511945E-11  -2.18956456104107E-15
      3.60000000000000E-01
      8.00000000000000E-01   8.00000000000000E-01   0.00000000000000E+00   0.00000000000000E+00   1.29642555391839E-15
      8.67821254517833E-19   1.29729337517290E-15   3.35848562181726E-15   0.00000000000000E+00   0.00000000000000E+00