DF-ISE text

Info {
  version   = 1.0
  type      = xyplot
  datasets  = [
    "time"
    "Ntop OuterVoltage" "Ntop InnerVoltage" "Ntop QuasiFermiPotential" "Ntop DisplacementCurrent" "Ntop eCurrent"
    "Ntop hCurrent" "Ntop TotalCurrent" "Ntop Charge" "Ptop OuterVoltage" "Ptop InnerVoltage"
    "Ptop QuasiFermiPotential" "Ptop DisplacementCurrent" "Ptop eCurrent" "Ptop hCurrent" "Ptop TotalCurrent"
    "Ptop Charge" "Pbot OuterVoltage" "Pbot InnerVoltage" "Pbot QuasiFermiPotential" "Pbot DisplacementCurrent"
    "Pbot eCurrent" "Pbot hCurrent" "Pbot TotalCurrent" "Pbot Charge" ]
  functions = [
    Time
    OuterVoltage InnerVoltage QuasiFermiPotential DisplacementCurrent eCurrent
    hCurrent TotalCurrent Charge OuterVoltage InnerVoltage
    QuasiFermiPotential DisplacementCurrent eCurrent hCurrent TotalCurrent
    Charge OuterVoltage InnerVoltage QuasiFermiPotential DisplacementCurrent
    eCurrent hCurrent TotalCurrent Charge ]
}

Data {
      0.00000000000000E+00
      0.00000000000000E+00   0.00000000000000E+00   0.00000000000000E+00   0.00000000000000E+00   9.81111204991756E-26
     -4.28183117378849E-18  -4.28183107567737E-18   3.00459644060745E-15   0.00000000000000E+00   0.00000000000000E+00
      0.00000000000000E+00   0.00000000000000E+00  -9.81189030332381E-26  -3.19288009443446E-20  -3.19288990632476E-20
     -1.08689325958196E-15   0.00000000000000E+00   0.00000000000000E+00   0.00000000000000E+00   0.00000000000000E+00
      7.77279972244543E-30   4.31375997473284E-18   4.31375997474061E-18  -1.91770318102548E-15
      0.00000000000000E+00
      0.00000000000000E+00   0.00000000000000E+00   0.00000000000000E+00   0.00000000000000E+00   8.24572824639865E-27
     -6.88256947640936E-20  -6.88256865183654E-20   3.00459644071083E-15   0.00000000000000E+00   0.00000000000000E+00
      0.00000000000000E+00   0.00000000000000E+00  -8.24474558418920E-27  -6.47413078387735E-21  -6.47413902862293E-21
     -1.08689325958197E-15   0.00000000000000E+00   0.00000000000000E+00   0.00000000000000E+00   0.00000000000000E+00
     -4.71224347299578E-31   7.52998255474594E-20   7.52998255469882E-20  -1.91770318112886E-15
      1.00000000000000E-01
      8.00000000000000E-02   8.00000000000000E-02   0.00000000000000E+00   0.00000000000000E+00   1.49214194252226E-16
      5.57271130118980E-19   1.49771465382344E-16   3.08333526660538E-15   0.00000000000000E+00   0.00000000000000E+00
      0.00000000000000E+00   0.00000000000000E+00  -9.93420185733479E-19  -1.31674903506357E-17  -1.41609105363692E-17
     -1.16488928809680E-15   0.00000000000000E+00   0.00000000000000E+00   0.00000000000000E+00   0.00000000000000E+00
     -2.28396109802619E-17  -1.12770943865714E-16  -1.35610554845975E-16  -1.91844597850858E-15
      2.00000000000000E-01
      1.60000000000000E-01   1.60000000000000E-01   0.00000000000000E+00   0.00000000000000E+00   2.14156599060759E-16
     -9.80898949586607E-20   2.14058509165800E-16   3.15914828994399E-15   0.00000000000000E+00   0.00000000000000E+00
      0.00000000000000E+00   0.00000000000000E+00  -1.03467251922547E-18  -2.03824839338123E-17  -2.14171564530378E-17
     -1.23995982362178E-15   0.00000000000000E+00   0.00000000000000E+00   0.00000000000000E+00   0.00000000000000E+00
     -2.29524633394627E-17  -1.69688889373300E-16  -1.92641352712762E-16  -1.91918846632221E-15
      3.00000000000000E-01
      2.40000000000000E-01   2.40000000000000E-01   0.00000000000000E+00   0.00000000000000E+00   2.66789710125595E-16
      3.83429131950745E-19   2.67173139257546E-16   3.23262310673585E-15   0.00000000000000E+00   0.00000000000000E+00
      0.00000000000000E+00   0.00000000000000E+00  -1.03622049373433E-18  -2.65498344597355E-17  -2.75860549534698E-17
     -1.31269223355827E-15   0.00000000000000E+00   0.00000000000000E+00   0.00000000000000E+00   0.00000000000000E+00
     -2.29524423937217E-17  -2.16634641910354E-16  -2.39587084304076E-16  -1.91993087317759E-15
      4.00000000000000E-01
      3.20000000000000E-01   3.20000000000000E-01   0.00000000000000E+00   0.00000000000000E+00   3.13426818383673E-16
     -8.31851463864467E-21   3.13418499869034E-16   3.30416215106547E-15   0.00000000000000E+00   0.00000000000000E+00
      0.00000000000000E+00   0.00000000000000E+00  -1.03627533651650E-18  -3.22500623534685E-17  -3.32863376899850E-17
     -1.38348893559088E-15   0.00000000000000E+00   0.00000000000000E+00   0.00000000000000E+00   0.00000000000000E+00
     -2.29524636556141E-17  -2.57179698523435E-16  -2.80132162179049E-16  -1.92067321547459E-15
      5.00000000000000E-01
      4.00000000000000E-01   4.00000000000000E-01   0.00000000000000E+00   0.00000000000000E+00   3.56191683669716E-16
      1.15532389473280E-18   3.57347007564448E-16   3.37403741267817E-15   0.00000000000000E+00   0.00000000000000E+00
      0.00000000000000E+00   0.00000000000000E+00  -1.03628507984187E-18  -3.76129216470451E-17  -3.86492067268870E-17
     -1.45262198429802E-15   0.00000000000000E+00   0.00000000000000E+00   0.00000000000000E+00   0.00000000000000E+00
     -2.29524876671304E-17  -2.95745313170431E-16  -3.18697800837561E-16  -1.92141542838016E-15
      6.00000000000000E-01
      4.80000000000000E-01   4.80000000000000E-01   0.00000000000000E+00   0.00000000000000E+00   3.96234523680097E-16
      8.25833404949070E-20   3.96317107020592E-16   3.44241735228783E-15   0.00000000000000E+00   0.00000000000000E+00
      0.00000000000000E+00   0.00000000000000E+00  -1.03629367854781E-18  -4.27076076095803E-17  -4.37439012881281E-17
     -1.52025992710553E-15   0.00000000000000E+00   0.00000000000000E+00   0.00000000000000E+00   0.00000000000000E+00
     -2.29525117994922E-17  -3.29620693932971E-16  -3.52573205732464E-16  -1.92215742518230E-15
      7.00000000000000E-01
      5.60000000000000E-01   5.60000000000000E-01   0.00000000000000E+00   0.00000000000000E+00   4.34166555488981E-16
     -8.02427577487369E-20   4.34086312731233E-16   3.50937692463673E-15   0.00000000000000E+00   0.00000000000000E+00
      0.00000000000000E+00   0.00000000000000E+00  -1.03630174745665E-18  -4.76125966877742E-17  -4.86488984352308E-17
     -1.58647780275600E-15   0.00000000000000E+00   0.00000000000000E+00   0.00000000000000E+00   0.00000000000000E+00
     -2.29525359630446E-17  -3.62484878332957E-16  -3.85437414296002E-16  -1.92289912188074E-15
      8.00000000000000E-01
      6.40000000000000E-01   6.40000000000000E-01   0.00000000000000E+00   0.00000000000000E+00   4.70317640093475E-16
      1.92592966950532E-19   4.70510233060426E-16   3.57489889701906E-15   0.00000000000000E+00   0.00000000000000E+00
      0.00000000000000E+00   0.00000000000000E+00  -1.03630947230665E-18  -5.23879157633757E-17  -5.34242252356823E-17
     -1.65125845206343E-15   0.00000000000000E+00   0.00000000000000E+00   0.00000000000000E+00   0.00000000000000E+00
     -2.29525601475985E-17  -3.94133447677145E-16  -4.17086007824744E-16  -1.92364044495563E-15
      9.00000000000000E-01
      7.20000000000000E-01   7.20000000000000E-01   0.00000000000000E+00   0.00000000000000E+00   5.04971595007125E-16
      5.63861365544812E-19   5.05535456372670E-16   3.63887891107786E-15   0.00000000000000E+00   0.00000000000000E+00
      0.00000000000000E+00   0.00000000000000E+00  -1.03631666714072E-18  -5.71952836572128E-17  -5.82316003243535E-17
     -1.71449758114202E-15   0.00000000000000E+00   0.00000000000000E+00   0.00000000000000E+00   0.00000000000000E+00
     -2.29525843471334E-17  -4.24351271701183E-16  -4.47303856048317E-16  -1.92438132993584E-15
      1.00000000000000E+00
      8.00000000000000E-01   8.00000000000000E-01   0.00000000000000E+00   0.00000000000000E+00   5.38424529069497E-16
     -1.37994973498687E-19   5.38286534095998E-16   3.70115966250494E-15   0.00000000000000E+00   0.00000000000000E+00
      0.00000000000000E+00   0.00000000000000E+00  -1.03632318195407E-18  -6.21811923093336E-17  -6.32175154912877E-17
     -1.77603795023190E-15   0.00000000000000E+00   0.00000000000000E+00   0.00000000000000E+00   0.00000000000000E+00
     -2.29526085564672E-17  -4.52116410048244E-16  -4.75069018604711E-16  -1.92512171227305E-15
      0.00000000000000E+00
      8.00000000000000E-01   8.00000000000000E-01   0.00000000000000E+00   0.00000000000000E+00   5.38424529151947E-16
      6.71287204645802E-19   5.39095816356593E-16   3.70115966250495E-15   0.00000000000000E+00   0.00000000000000E+00
      0.00000000000000E+00   0.00000000000000E+00  -1.03632326440900E-18  -6.21729131955774E-17  -6.32092364599864E-17
     -1.77603795023190E-15   0.00000000000000E+00   0.00000000000000E+00   0.00000000000000E+00   0.00000000000000E+00
     -2.29526085564673E-17  -4.52933971340141E-16  -4.75886579896608E-16  -1.92512171227305E-15
      1.00000000000000E-02
      8.00000000000000E-01   8.00000000000000E-01   0.00000000000000E+00   0.00000000000000E+00   6.93059021315458E-16
     -1.27869003402356E-18   6.91780331281435E-16   3.70576077436166E-15   0.00000000000000E+00   0.00000000000000E+00
      0.00000000000000E+00   0.00000000000000E+00  -1.03632325930848E-18  -6.15852323451406E-17  -6.26215556044491E-17
     -1.77602272543201E-15  -5.00000000000000E-01  -5.00000000000000E-01   0.00000000000000E+00   0.00000000000000E+00
     -2.29527595433102E-17  -6.06206016133676E-16  -6.29158775676986E-16  -1.92973804892965E-15
      2.00000000000000E-02
      8.00000000000000E-01   8.00000000000000E-01   0.00000000000000E+00   0.00000000000000E+00   8.21504297880728E-16
      2.76923266363717E-18   8.24273530544365E-16   3.71029045490794E-15   0.00000000000000E+00   0.00000000000000E+00
      0.00000000000000E+00   0.00000000000000E+00  -1.03632323625247E-18  -6.11684953721319E-17  -6.22048186083844E-17
     -1.77595391654804E-15  -1.00000000000000E+00  -1.00000000000000E+00   0.00000000000000E+00   0.00000000000000E+00
     -2.29529113925837E-17  -7.39115800543398E-16  -7.62068711935982E-16  -1.93433653835989E-15
      3.00000000000000E-02
      8.00000000000000E-01   8.00000000000000E-01   0.00000000000000E+00   0.00000000000000E+00   9.32309190084579E-16
     -2.33431176333120E-18   9.29974878321248E-16   3.71462986485518E-15   0.00000000000000E+00   0.00000000000000E+00
      0.00000000000000E+00   0.00000000000000E+00  -1.03632315155052E-18  -6.09297118662299E-17  -6.19660350177805E-17
     -1.77570117961038E-15  -1.50000000000000E+00  -1.50000000000000E+00   0.00000000000000E+00   0.00000000000000E+00
     -2.29530630398916E-17  -8.45055780263577E-16  -8.68008843303468E-16  -1.93892868524480E-15
      4.00000000000000E-02
      8.00000000000000E-01   8.00000000000000E-01   0.00000000000000E+00   0.00000000000000E+00   1.02452515096503E-15
      3.48543605149657E-18   1.02801058701653E-15   3.71850880752819E-15   0.00000000000000E+00   0.00000000000000E+00
      0.00000000000000E+00   0.00000000000000E+00  -1.03632289997592E-18  -6.08891195828877E-17  -6.19254424828637E-17
     -1.77495019792024E-15  -2.00000000000000E+00  -2.00000000000000E+00   0.00000000000000E+00   0.00000000000000E+00
     -2.29532162881950E-17  -9.43131928245474E-16  -9.66085144533669E-16  -1.94355860960795E-15
      5.00000000000000E-02
      8.00000000000000E-01   8.00000000000000E-01   0.00000000000000E+00   0.00000000000000E+00   1.09829256784927E-15
      1.03982330310947E-18   1.09933239115238E-15   3.72142132178824E-15   0.00000000000000E+00   0.00000000000000E+00
      0.00000000000000E+00   0.00000000000000E+00  -1.03632229386461E-18  -6.11466966010784E-17  -6.21830188949430E-17
     -1.77313527367763E-15  -2.50000000000000E+00  -2.50000000000000E+00   0.00000000000000E+00   0.00000000000000E+00
     -2.29533730757210E-17  -1.01419599918172E-15  -1.03714937225744E-15  -1.94828604811060E-15
      6.00000000000000E-02
      8.00000000000000E-01   8.00000000000000E-01   0.00000000000000E+00   0.00000000000000E+00   1.15754545513987E-15
      7.49849921850170E-18   1.16504395435837E-15   3.72270416601428E-15   0.00000000000000E+00   0.00000000000000E+00
      0.00000000000000E+00   0.00000000000000E+00  -1.03632110601806E-18  -6.18720962030937E-17  -6.29084173091117E-17
     -1.76954440193164E-15  -3.00000000000000E+00  -3.00000000000000E+00   0.00000000000000E+00   0.00000000000000E+00
     -2.29535350049748E-17  -1.07918200204428E-15  -1.10213553704926E-15  -1.95315976408263E-15
      7.00000000000000E-02
      8.00000000000000E-01   8.00000000000000E-01   0.00000000000000E+00   0.00000000000000E+00   1.20491193710178E-15
      3.05084234118995E-18   1.20796277944297E-15   3.72190970935520E-15   0.00000000000000E+00   0.00000000000000E+00
      0.00000000000000E+00   0.00000000000000E+00  -1.03631920988920E-18  -6.32775463642004E-17  -6.43138655740896E-17
     -1.76369398492188E-15  -3.50000000000000E+00  -3.50000000000000E+00   0.00000000000000E+00   0.00000000000000E+00
     -2.29537032704473E-17  -1.12069521059843E-15  -1.14364891386888E-15  -1.95821572443332E-15
      8.00000000000000E-02
      8.00000000000000E-01   8.00000000000000E-01   0.00000000000000E+00   0.00000000000000E+00   1.24182887485755E-15
      5.13153929204081E-18   1.24696041414959E-15   3.71915703734427E-15   0.00000000000000E+00   0.00000000000000E+00
      0.00000000000000E+00   0.00000000000000E+00  -1.03631668982497E-18  -6.55595796527663E-17  -6.65958963425912E-17
     -1.75567676296853E-15  -4.00000000000000E+00  -4.00000000000000E+00   0.00000000000000E+00   0.00000000000000E+00
     -2.29538787573107E-17  -1.15741063904969E-15  -1.18036451780700E-15  -1.96348027437573E-15
      9.00000000000000E-02
      8.00000000000000E-01   8.00000000000000E-01   0.00000000000000E+00   0.00000000000000E+00   1.27075681881819E-15
      6.08591398885177E-18   1.27684273280704E-15   3.71494324898788E-15   0.00000000000000E+00   0.00000000000000E+00
      0.00000000000000E+00   0.00000000000000E+00  -1.03631374357259E-18  -6.86664266204741E-17  -6.97027403640467E-17
     -1.74597080427337E-15  -4.50000000000000E+00  -4.50000000000000E+00   0.00000000000000E+00   0.00000000000000E+00
     -2.29540621142820E-17  -1.18418593032871E-15  -1.20713999244299E-15  -1.96897244471450E-15
      1.00000000000000E-01
      8.00000000000000E-01   8.00000000000000E-01   0.00000000000000E+00   0.00000000000000E+00   1.29278705431845E-15
     -1.04275775202130E-19   1.29268277854325E-15   3.70972207550569E-15   0.00000000000000E+00   0.00000000000000E+00
      0.00000000000000E+00   0.00000000000000E+00  -1.03631052963367E-18  -7.18230021950250E-17  -7.28593127246586E-17
     -1.73501893492910E-15  -5.00000000000000E+00  -5.00000000000000E+00   0.00000000000000E+00   0.00000000000000E+00
     -2.29542537238135E-17  -1.19686921209478E-15  -1.21982346581859E-15  -1.97470314057660E-15
      1.10000000000000E-01
      8.00000000000000E-01   8.00000000000000E-01   0.00000000000000E+00   0.00000000000000E+00   1.30861484775898E-15
      3.51914385151052E-18   1.31213399161049E-15   3.70377685316098E-15   0.00000000000000E+00   0.00000000000000E+00
      0.00000000000000E+00   0.00000000000000E+00  -1.03630713744286E-18  -7.40191156129671E-17  -7.50554227504100E-17
     -1.72309997687975E-15  -5.50000000000000E+00  -5.50000000000000E+00   0.00000000000000E+00   0.00000000000000E+00
     -2.29544537578103E-17  -1.21412411510227E-15  -1.23707856886008E-15  -1.98067687628122E-15
      1.20000000000000E-01
      8.00000000000000E-01   8.00000000000000E-01   0.00000000000000E+00   0.00000000000000E+00   1.31977000175478E-15
     -1.03122299392833E-18   1.31873877876085E-15   3.69726975478804E-15   0.00000000000000E+00   0.00000000000000E+00
      0.00000000000000E+00   0.00000000000000E+00  -1.03630361394065E-18  -7.50944128028369E-17  -7.61307164167775E-17
     -1.71037520539430E-15  -6.00000000000000E+00  -6.00000000000000E+00   0.00000000000000E+00   0.00000000000000E+00
     -2.29546622689650E-17  -1.21965340007511E-15  -1.24260806234407E-15  -1.98689454939375E-15
      1.30000000000000E-01
      8.00000000000000E-01   8.00000000000000E-01   0.00000000000000E+00   0.00000000000000E+00   1.32800942681069E-15
     -1.00668156780877E-17   1.31794261113260E-15   3.69029665753097E-15   0.00000000000000E+00   0.00000000000000E+00
      0.00000000000000E+00   0.00000000000000E+00  -1.03629998525488E-18  -7.54277201341666E-17  -7.64640201194215E-17
     -1.69694140181944E-15  -6.50000000000000E+00  -6.50000000000000E+00   0.00000000000000E+00   0.00000000000000E+00
     -2.29548792507697E-17  -1.21852371176241E-15  -1.24147859101318E-15  -1.99335525571154E-15
      1.40000000000000E-01
      8.00000000000000E-01   8.00000000000000E-01   0.00000000000000E+00   0.00000000000000E+00   1.33448616481707E-15
     -8.91860682761529E-18   1.32556755798945E-15   3.68291798705640E-15   0.00000000000000E+00   0.00000000000000E+00
      0.00000000000000E+00   0.00000000000000E+00  -1.03629626744957E-18  -7.52962534312965E-17  -7.63325496987461E-17
     -1.68286076675782E-15  -7.00000000000000E+00  -7.00000000000000E+00   0.00000000000000E+00   0.00000000000000E+00
     -2.29551046683484E-17  -1.22627990362236E-15  -1.24923500829071E-15  -2.00005722029858E-15
      1.50000000000000E-01
      8.00000000000000E-01   8.00000000000000E-01   0.00000000000000E+00   0.00000000000000E+00   1.33980591123603E-15
      4.00131892106362E-19   1.34020604312813E-15   3.67517413380485E-15   0.00000000000000E+00   0.00000000000000E+00
      0.00000000000000E+00   0.00000000000000E+00  -1.03629247138695E-18  -7.49384850361420E-17  -7.59747775075290E-17
     -1.66817587651972E-15  -7.50000000000000E+00  -7.50000000000000E+00   0.00000000000000E+00   0.00000000000000E+00
     -2.29553384736908E-17  -1.24127592714691E-15  -1.26423126562060E-15  -2.00699825728513E-15
      1.60000000000000E-01
      8.00000000000000E-01   8.00000000000000E-01   0.00000000000000E+00   0.00000000000000E+00   1.34427702837492E-15
     -2.62449305534206E-17   1.31803209782150E-15   3.66709327418590E-15   0.00000000000000E+00   0.00000000000000E+00
      0.00000000000000E+00   0.00000000000000E+00  -1.03628860499426E-18  -7.43756485928823E-17  -7.54119371978766E-17
     -1.65291727041905E-15  -8.00000000000000E+00  -8.00000000000000E+00   0.00000000000000E+00   0.00000000000000E+00
     -2.29555806134120E-17  -1.21966458001021E-15  -1.24262016062362E-15  -2.01417600376686E-15
      1.70000000000000E-01
      8.00000000000000E-01   8.00000000000000E-01   0.00000000000000E+00   0.00000000000000E+00   1.34807743293428E-15
     -7.42543198875518E-18   1.34065200094553E-15   3.65869555687938E-15   0.00000000000000E+00   0.00000000000000E+00
      0.00000000000000E+00   0.00000000000000E+00  -1.03628467440268E-18  -7.36839824481330E-17  -7.47202671225357E-17
     -1.63710751302094E-15  -8.50000000000000E+00  -8.50000000000000E+00   0.00000000000000E+00   0.00000000000000E+00
     -2.29558310328584E-17  -1.24297590279013E-15  -1.26593173382299E-15  -2.02158804385843E-15
      1.80000000000000E-01
      8.00000000000000E-01   8.00000000000000E-01   0.00000000000000E+00   0.00000000000000E+00   1.35133867068673E-15
      4.86220158311991E-19   1.35182489084504E-15   3.64999545468456E-15   0.00000000000000E+00   0.00000000000000E+00
      0.00000000000000E+00   0.00000000000000E+00  -1.03628068456763E-18  -7.28834410613059E-17  -7.39197217458735E-17
     -1.62076347940111E-15  -9.00000000000000E+00  -9.00000000000000E+00   0.00000000000000E+00   0.00000000000000E+00
     -2.29560896783207E-17  -1.25494907942085E-15  -1.27790516909917E-15  -2.02923197528344E-15
      1.90000000000000E-01
      8.00000000000000E-01   8.00000000000000E-01   0.00000000000000E+00   0.00000000000000E+00   1.35417073196676E-15
      8.43723631591856E-18   1.36260796828268E-15   3.64100309858229E-15   0.00000000000000E+00   0.00000000000000E+00
      0.00000000000000E+00   0.00000000000000E+00  -1.03627663962838E-18  -7.19086236534356E-17  -7.29449002930640E-17
     -1.60389765619535E-15  -9.50000000000000E+00  -9.50000000000000E+00   0.00000000000000E+00   0.00000000000000E+00
     -2.29563564981236E-17  -1.26670671149149E-15  -1.28966306798961E-15  -2.03710544238694E-15
      2.00000000000000E-01
      8.00000000000000E-01   8.00000000000000E-01   0.00000000000000E+00   0.00000000000000E+00   1.35665380440119E-15
      1.09933009893406E-18   1.35775313450013E-15   3.63172499636931E-15   0.00000000000000E+00   0.00000000000000E+00
      0.00000000000000E+00   0.00000000000000E+00  -1.03627254312520E-18  -7.07000453532157E-17  -7.17363178963409E-17
     -1.58651884837426E-15  -1.00000000000000E+01  -1.00000000000000E+01   0.00000000000000E+00   0.00000000000000E+00
     -2.29566314430134E-17  -1.26306018516077E-15  -1.28601681660378E-15  -2.04520614799505E-15
      2.10000000000000E-01
      8.00000000000000E-01   8.00000000000000E-01   0.00000000000000E+00   0.00000000000000E+00   1.35886051655816E-15
      3.75841576165625E-18   1.36261893231981E-15   3.62216438326602E-15   0.00000000000000E+00   0.00000000000000E+00
      0.00000000000000E+00   0.00000000000000E+00  -1.03626839813707E-18  -6.88529016503127E-17  -6.98891700484498E-17
     -1.56863253035999E-15  -1.05000000000000E+01  -1.05000000000000E+01   0.00000000000000E+00   0.00000000000000E+00
     -2.29569144661313E-17  -1.26977284780523E-15  -1.29272976227136E-15  -2.05353185290602E-15
      2.20000000000000E-01
      8.00000000000000E-01   8.00000000000000E-01   0.00000000000000E+00   0.00000000000000E+00   1.36086476988281E-15
     -2.93763622131115E-18   1.35792713366150E-15   3.61232141893828E-15   0.00000000000000E+00   0.00000000000000E+00
      0.00000000000000E+00   0.00000000000000E+00  -1.03626420738135E-18  -6.50214920846793E-17  -6.60577562920607E-17
     -1.55024104750842E-15  -1.10000000000000E+01  -1.10000000000000E+01   0.00000000000000E+00   0.00000000000000E+00
     -2.29572055228476E-17  -1.26891217184659E-15  -1.29186937736944E-15  -2.06208037142985E-15
      2.30000000000000E-01
      8.00000000000000E-01   8.00000000000000E-01   0.00000000000000E+00   0.00000000000000E+00   1.36271731020636E-15
     -1.38534548339026E-17   1.34886385537246E-15   3.60219349279654E-15   0.00000000000000E+00   0.00000000000000E+00
      0.00000000000000E+00   0.00000000000000E+00  -1.03625997331010E-18  -5.44304236648050E-17  -5.54666836381151E-17
     -1.53134391991700E-15  -1.15000000000000E+01  -1.15000000000000E+01   0.00000000000000E+00   0.00000000000000E+00
     -2.29575045708076E-17  -1.27043966716354E-15  -1.29339717173434E-15  -2.07084957287954E-15
      2.40000000000000E-01
      8.00000000000000E-01   8.00000000000000E-01   0.00000000000000E+00   0.00000000000000E+00   1.36445213817927E-15
      1.50339645130784E-17   1.37948610269235E-15   3.59177603438222E-15   0.00000000000000E+00   0.00000000000000E+00
      0.00000000000000E+00   0.00000000000000E+00  -1.03625569823952E-18  -2.08944635306778E-17  -2.19307192289173E-17
     -1.51193863190293E-15  -1.20000000000000E+01  -1.20000000000000E+01   0.00000000000000E+00   0.00000000000000E+00
     -2.29578115706449E-17  -1.33459757189279E-15  -1.35755538346344E-15  -2.07983740247930E-15
      2.50000000000000E-01
      8.00000000000000E-01   8.00000000000000E-01   0.00000000000000E+00   0.00000000000000E+00   1.36609386342205E-15
     -5.69235967864384E-18   1.36040150374341E-15   3.58106444659005E-15   0.00000000000000E+00   0.00000000000000E+00
      0.00000000000000E+00   0.00000000000000E+00  -1.03625138455666E-18   8.98980616210574E-17   8.88618102365007E-17
     -1.49202250608932E-15  -1.25000000000000E+01  -1.25000000000000E+01   0.00000000000000E+00   0.00000000000000E+00
     -2.29581264879963E-17  -1.42630518749191E-15  -1.44926331397991E-15  -2.08904194050073E-15
      2.60000000000000E-01
      8.00000000000000E-01   8.00000000000000E-01   0.00000000000000E+00   0.00000000000000E+00   1.36765702236504E-15
      1.49730961049063E-17   1.38263011846994E-15   3.57005795913730E-15   0.00000000000000E+00   0.00000000000000E+00
      0.00000000000000E+00   0.00000000000000E+00  -1.03624703504513E-18   4.56166653006712E-16   4.55130405971666E-16
     -1.47159643819024E-15  -1.30000000000000E+01  -1.30000000000000E+01   0.00000000000000E+00   0.00000000000000E+00
     -2.29584492975990E-17  -1.81480207514401E-15  -1.83776052444161E-15  -2.09846152094706E-15
      2.70000000000000E-01
      8.00000000000000E-01   8.00000000000000E-01   0.00000000000000E+00   0.00000000000000E+00   1.36914324738856E-15
     -2.25541875169907E-17   1.34658905987157E-15   3.55876588707488E-15   0.00000000000000E+00   0.00000000000000E+00
      0.00000000000000E+00   0.00000000000000E+00  -1.03624265332356E-18   1.64881185879128E-15   1.64777561613796E-15
     -1.45067097050171E-15  -1.35000000000000E+01  -1.35000000000000E+01   0.00000000000000E+00   0.00000000000000E+00
     -2.29587799897027E-17  -2.97140589601984E-15  -2.99436467600954E-15  -2.10809491657318E-15
      2.80000000000000E-01
      8.00000000000000E-01   8.00000000000000E-01   0.00000000000000E+00   0.00000000000000E+00   1.37053879126369E-15
     -2.49309509418531E-17   1.34560784032184E-15   3.54721521403199E-15   0.00000000000000E+00   0.00000000000000E+00
      0.00000000000000E+00   0.00000000000000E+00  -1.03623824424027E-18   5.44911658817191E-15   5.44808034992767E-15
     -1.42927366909119E-15  -1.40000000000000E+01  -1.40000000000000E+01   0.00000000000000E+00   0.00000000000000E+00
     -2.29591185772751E-17  -6.77072907167223E-15  -6.79368819024951E-15  -2.11794154494080E-15
      2.90000000000000E-01
      8.00000000000000E-01   8.00000000000000E-01   0.00000000000000E+00   0.00000000000000E+00   1.37181323359923E-15
     -7.31171387064501E-18   1.36450151972858E-15   3.53545566121152E-15   0.00000000000000E+00   0.00000000000000E+00
      0.00000000000000E+00   0.00000000000000E+00  -1.03623381378622E-18   1.72506664417017E-14   1.72496302078879E-14
     -1.40745409046077E-15  -1.45000000000000E+01  -1.45000000000000E+01   0.00000000000000E+00   0.00000000000000E+00
     -2.29594650997066E-17  -1.85911722625168E-14  -1.86141317276165E-14  -2.12800157075075E-15
      3.00000000000000E-01
      8.00000000000000E-01   8.00000000000000E-01   0.00000000000000E+00   0.00000000000000E+00   1.37291698391412E-15
     -3.09181555265108E-18   1.36982516836147E-15   3.52355732380525E-15   0.00000000000000E+00   0.00000000000000E+00
      0.00000000000000E+00   0.00000000000000E+00  -1.03622936760844E-18   5.28533371827839E-14   5.28523009534163E-14
     -1.38528155696194E-15  -1.50000000000000E+01  -1.50000000000000E+01   0.00000000000000E+00   0.00000000000000E+00
     -2.29598196182399E-17  -5.41991663021596E-14  -5.42221261217778E-14  -2.13827576684331E-15
      3.10000000000000E-01
      8.00000000000000E-01   8.00000000000000E-01   0.00000000000000E+00   0.00000000000000E+00   1.37377061256608E-15
      1.08854130145851E-17   1.38465602558066E-15   3.51160023453020E-15   0.00000000000000E+00   0.00000000000000E+00
      0.00000000000000E+00   0.00000000000000E+00  -1.03622490558539E-18   1.56904642060793E-13   1.56903605835888E-13
     -1.36283508698946E-15  -1.55000000000000E+01  -1.55000000000000E+01   0.00000000000000E+00   0.00000000000000E+00
     -2.29601822034729E-17  -1.58265301679264E-13  -1.58288261861468E-13  -2.14876514754075E-15
      3.20000000000000E-01
      8.00000000000000E-01   8.00000000000000E-01   0.00000000000000E+00   0.00000000000000E+00   1.37423345042995E-15
     -1.38336569773216E-17   1.36039979345262E-15   3.49966186219312E-15   0.00000000000000E+00   0.00000000000000E+00
      0.00000000000000E+00   0.00000000000000E+00  -1.03622040318843E-18   4.50830769660791E-13   4.50829733440387E-13
     -1.34019127502341E-15  -1.60000000000000E+01  -1.60000000000000E+01   0.00000000000000E+00   0.00000000000000E+00
     -2.29605529222273E-17  -4.52167172680917E-13  -4.52190133233839E-13  -2.15947058716970E-15
      3.30000000000000E-01
      8.00000000000000E-01   8.00000000000000E-01   0.00000000000000E+00   0.00000000000000E+00   1.37402638452583E-15
     -5.15852401853840E-18   1.36886786050729E-15   3.48780954574614E-15   0.00000000000000E+00   0.00000000000000E+00
      0.00000000000000E+00   0.00000000000000E+00  -1.03621574899926E-18   1.25182967057489E-12   1.25182863435914E-12
     -1.31741689590001E-15  -1.65000000000000E+01  -1.65000000000000E+01   0.00000000000000E+00   0.00000000000000E+00
     -2.29609318316286E-17  -1.25317454128782E-12  -1.25319750221965E-12  -2.17039264984613E-15
      3.40000000000000E-01
      8.00000000000000E-01   8.00000000000000E-01   0.00000000000000E+00   0.00000000000000E+00   1.37255786973831E-15
      5.85325559510101E-18   1.37841112533341E-15   3.47609988568182E-15   0.00000000000000E+00   0.00000000000000E+00
      0.00000000000000E+00   0.00000000000000E+00  -1.03621055779782E-18   3.35419700946775E-12   3.35419597325719E-12
     -1.29456817022547E-15  -1.70000000000000E+01  -1.70000000000000E+01   0.00000000000000E+00   0.00000000000000E+00
     -2.29613189834369E-17  -3.35555142306353E-12  -3.35557438438252E-12  -2.18153171545634E-15
      3.50000000000000E-01
      8.00000000000000E-01   8.00000000000000E-01   0.00000000000000E+00   0.00000000000000E+00   1.36856837523630E-15
      6.34362870676433E-18   1.37491200394306E-15   3.46458304434038E-15   0.00000000000000E+00   0.00000000000000E+00
      0.00000000000000E+00   0.00000000000000E+00  -1.03620364597283E-18   8.66009366667194E-12   8.66009263046829E-12
     -1.27169462564111E-15  -1.75000000000000E+01  -1.75000000000000E+01   0.00000000000000E+00   0.00000000000000E+00
     -2.29617144394020E-17  -8.66144458075781E-12  -8.66146754247225E-12  -2.19288841869927E-15
      3.60000000000000E-01
      8.00000000000000E-01   8.00000000000000E-01   0.00000000000000E+00   0.00000000000000E+00   1.35950244264766E-15
      8.90883786510734E-18   1.36841128051276E-15   3.45330966141557E-15   0.00000000000000E+00   0.00000000000000E+00