DF-ISE text

Info {
  version   = 1.0
  type      = xyplot
  datasets  = [
    "time"
    "Ntop OuterVoltage" "Ntop InnerVoltage" "Ntop QuasiFermiPotential" "Ntop DisplacementCurrent" "Ntop eCurrent"
    "Ntop hCurrent" "Ntop TotalCurrent" "Ntop Charge" "Ptop OuterVoltage" "Ptop InnerVoltage"
    "Ptop QuasiFermiPotential" "Ptop DisplacementCurrent" "Ptop eCurrent" "Ptop hCurrent" "Ptop TotalCurrent"
    "Ptop Charge" "Pbot OuterVoltage" "Pbot InnerVoltage" "Pbot QuasiFermiPotential" "Pbot DisplacementCurrent"
    "Pbot eCurrent" "Pbot hCurrent" "Pbot TotalCurrent" "Pbot Charge" ]
  functions = [
    Time
    OuterVoltage InnerVoltage QuasiFermiPotential DisplacementCurrent eCurrent
    hCurrent TotalCurrent Charge OuterVoltage InnerVoltage
    QuasiFermiPotential DisplacementCurrent eCurrent hCurrent TotalCurrent
    Charge OuterVoltage InnerVoltage QuasiFermiPotential DisplacementCurrent
    eCurrent hCurrent TotalCurrent Charge ]
}

Data {
      0.00000000000000E+00
      0.00000000000000E+00   0.00000000000000E+00   0.00000000000000E+00   0.00000000000000E+00  -8.80190100340380E-26
     -4.25860034700676E-18  -4.25860043502577E-18   3.02651437644920E-15   0.00000000000000E+00   0.00000000000000E+00
      0.00000000000000E+00   0.00000000000000E+00   8.80484467212043E-26  -2.28826127324953E-20  -2.28825246840486E-20
     -1.10881119541862E-15   0.00000000000000E+00   0.00000000000000E+00   0.00000000000000E+00   0.00000000000000E+00
     -2.94447062006810E-29   4.28148295973926E-18   4.28148295970982E-18  -1.91770318103058E-15
      0.00000000000000E+00
      0.00000000000000E+00   0.00000000000000E+00   0.00000000000000E+00   0.00000000000000E+00  -6.03063754729460E-28
      1.43836482735595E-18   1.43836482675288E-18   3.02651437655257E-15   0.00000000000000E+00   0.00000000000000E+00
      0.00000000000000E+00   0.00000000000000E+00   6.05886152234927E-28  -7.61590463342639E-21  -7.61590402754024E-21
     -1.10881119541862E-15   0.00000000000000E+00   0.00000000000000E+00   0.00000000000000E+00   0.00000000000000E+00
     -2.35564172105366E-30  -1.43074892272299E-18  -1.43074892272534E-18  -1.91770318113396E-15
      1.00000000000000E-01
      8.00000000000000E-02   8.00000000000000E-02   0.00000000000000E+00   0.00000000000000E+00   1.49167271773421E-16
     -3.88874128386928E-19   1.48778397645034E-16   3.10423636021922E-15   0.00000000000000E+00   0.00000000000000E+00
      0.00000000000000E+00   0.00000000000000E+00  -9.93421762735701E-19  -1.30673037690651E-17  -1.40607255318008E-17
     -1.18579038169586E-15   0.00000000000000E+00   0.00000000000000E+00   0.00000000000000E+00   0.00000000000000E+00
     -2.28396109804074E-17  -1.11878061132826E-16  -1.34717672113234E-16  -1.91844597852336E-15
      2.00000000000000E-01
      1.60000000000000E-01   1.60000000000000E-01   0.00000000000000E+00   0.00000000000000E+00   2.14064036497994E-16
      3.74229207224594E-19   2.14438265705219E-16   3.17916959208180E-15   0.00000000000000E+00   0.00000000000000E+00
      0.00000000000000E+00   0.00000000000000E+00  -1.03467417907715E-18  -2.02028540128785E-17  -2.12375281919557E-17
     -1.25998112572094E-15   0.00000000000000E+00   0.00000000000000E+00   0.00000000000000E+00   0.00000000000000E+00
     -2.29524633397029E-17  -1.70248274173560E-16  -1.93200737513263E-16  -1.91918846636086E-15
      3.00000000000000E-01
      2.40000000000000E-01   2.40000000000000E-01   0.00000000000000E+00   0.00000000000000E+00   2.66641200241929E-16
      1.32754089097217E-19   2.66773954331026E-16   3.25187441827551E-15   0.00000000000000E+00   0.00000000000000E+00
      0.00000000000000E+00   0.00000000000000E+00  -1.03622206636835E-18  -2.63120006123822E-17  -2.73482226787505E-17
     -1.33194354500309E-15   0.00000000000000E+00   0.00000000000000E+00   0.00000000000000E+00   0.00000000000000E+00
     -2.29524423937241E-17  -2.16473289258551E-16  -2.39425731652275E-16  -1.91993087327243E-15
      4.00000000000000E-01
      3.20000000000000E-01   3.20000000000000E-01   0.00000000000000E+00   0.00000000000000E+00   3.13215864765497E-16
     -3.61229340783088E-19   3.12854635424714E-16   3.32273906874121E-15   0.00000000000000E+00   0.00000000000000E+00
      0.00000000000000E+00   0.00000000000000E+00  -1.03627691448309E-18  -3.19766498378043E-17  -3.30129267522874E-17
     -1.40206585304410E-15   0.00000000000000E+00   0.00000000000000E+00   0.00000000000000E+00   0.00000000000000E+00
     -2.29524636556215E-17  -2.56889245016805E-16  -2.79841708672427E-16  -1.92067321569710E-15
      5.00000000000000E-01
      4.00000000000000E-01   4.00000000000000E-01   0.00000000000000E+00   0.00000000000000E+00   3.55909836135543E-16
     -9.52109518810795E-20   3.55814625183662E-16   3.39203124304322E-15   0.00000000000000E+00   0.00000000000000E+00
      0.00000000000000E+00   0.00000000000000E+00  -1.03628675557929E-18  -3.72423173925715E-17  -3.82786041481508E-17
     -1.47061581415680E-15   0.00000000000000E+00   0.00000000000000E+00   0.00000000000000E+00   0.00000000000000E+00
     -2.29524876671468E-17  -2.94583533368365E-16  -3.17536021035511E-16  -1.92141542888642E-15
      6.00000000000000E-01
      4.80000000000000E-01   4.80000000000000E-01   0.00000000000000E+00   0.00000000000000E+00   3.95872895095404E-16
      4.54054814810866E-19   3.96326949910214E-16   3.45992412702477E-15   0.00000000000000E+00   0.00000000000000E+00
      0.00000000000000E+00   0.00000000000000E+00  -1.03629547800816E-18  -4.22871431388288E-17  -4.33234386168370E-17
     -1.53776670071134E-15   0.00000000000000E+00   0.00000000000000E+00   0.00000000000000E+00   0.00000000000000E+00
     -2.29525117995290E-17  -3.30050999493849E-16  -3.53003511293378E-16  -1.92215742631343E-15
      7.00000000000000E-01
      5.60000000000000E-01   5.60000000000000E-01   0.00000000000000E+00   0.00000000000000E+00   4.33715717514989E-16
     -2.74056261803200E-19   4.33441661253186E-16   3.52650716265823E-15   0.00000000000000E+00   0.00000000000000E+00
      0.00000000000000E+00   0.00000000000000E+00  -1.03630369294056E-18  -4.70754984892594E-17  -4.81118021822000E-17
     -1.60360803826501E-15   0.00000000000000E+00   0.00000000000000E+00   0.00000000000000E+00   0.00000000000000E+00
     -2.29525359631265E-17  -3.62377323107860E-16  -3.85329859070986E-16  -1.92289912439321E-15
      8.00000000000000E-01
      6.40000000000000E-01   6.40000000000000E-01   0.00000000000000E+00   0.00000000000000E+00   4.69757653943812E-16
     -2.37385471151155E-19   4.69520268472661E-16   3.59178906907908E-15   0.00000000000000E+00   0.00000000000000E+00
      0.00000000000000E+00   0.00000000000000E+00  -1.03631158304296E-18  -5.17529331845773E-17  -5.27892447676203E-17
     -1.66814861850716E-15   0.00000000000000E+00   0.00000000000000E+00   0.00000000000000E+00   0.00000000000000E+00
     -2.29525601477819E-17  -3.93778463557259E-16  -4.16731023705041E-16  -1.92364045057191E-15
      9.00000000000000E-01
      7.20000000000000E-01   7.20000000000000E-01   0.00000000000000E+00   0.00000000000000E+00   5.04261386097450E-16
     -4.49449433296602E-19   5.03811936664153E-16   3.65570309508775E-15   0.00000000000000E+00   0.00000000000000E+00
      0.00000000000000E+00   0.00000000000000E+00  -1.03631897885202E-18  -5.63753775560058E-17  -5.74116965348579E-17
     -1.73132175238384E-15   0.00000000000000E+00   0.00000000000000E+00   0.00000000000000E+00   0.00000000000000E+00
     -2.29525843475507E-17  -4.23447655781744E-16  -4.46400240129295E-16  -1.92438134270392E-15
      1.00000000000000E+00
      8.00000000000000E-01   8.00000000000000E-01   0.00000000000000E+00   0.00000000000000E+00   5.37489695632702E-16
      7.36914200332663E-19   5.38226609833035E-16   3.71813268356360E-15   0.00000000000000E+00   0.00000000000000E+00
      0.00000000000000E+00   0.00000000000000E+00  -1.03632577828346E-18  -6.11423497040850E-17  -6.21786754823685E-17
     -1.79301094166460E-15   0.00000000000000E+00   0.00000000000000E+00   0.00000000000000E+00   0.00000000000000E+00
     -2.29526085574364E-17  -4.53095325793231E-16  -4.76047934350667E-16  -1.92512174189898E-15
      0.00000000000000E+00
      8.00000000000000E-01   8.00000000000000E-01   0.00000000000000E+00   0.00000000000000E+00   5.37489695681316E-16
      3.13592244658178E-19   5.37803287925974E-16   3.71813268356359E-15   0.00000000000000E+00   0.00000000000000E+00
      0.00000000000000E+00   0.00000000000000E+00  -1.03632582689881E-18  -6.11385604944219E-17  -6.21748863213207E-17
     -1.79301094166461E-15   0.00000000000000E+00   0.00000000000000E+00   0.00000000000000E+00   0.00000000000000E+00
     -2.29526085574365E-17  -4.52675793047218E-16  -4.75628401604654E-16  -1.92512174189898E-15
      1.00000000000000E-02
      8.00000000000000E-01   8.00000000000000E-01   0.00000000000000E+00   0.00000000000000E+00   6.92105016570441E-16
     -7.94030627426695E-19   6.91310985943014E-16   3.72273693800605E-15   0.00000000000000E+00   0.00000000000000E+00
      0.00000000000000E+00   0.00000000000000E+00  -1.03632582248140E-18  -6.05780416642844E-17  -6.16143674867658E-17
     -1.79299870181494E-15  -5.00000000000000E-01  -5.00000000000000E-01   0.00000000000000E+00   0.00000000000000E+00
     -2.29527595494673E-17  -6.06743858906781E-16  -6.29696618456249E-16  -1.92973823619111E-15
      2.00000000000000E-02
      8.00000000000000E-01   8.00000000000000E-01   0.00000000000000E+00   0.00000000000000E+00   8.20466870362854E-16
     -1.98646963196564E-18   8.18480400730889E-16   3.72728090162023E-15   0.00000000000000E+00   0.00000000000000E+00
      0.00000000000000E+00   0.00000000000000E+00  -1.03632580254770E-18  -6.01839194836734E-17  -6.12202452862211E-17
     -1.79294347667721E-15  -1.00000000000000E+00  -1.00000000000000E+00   0.00000000000000E+00   0.00000000000000E+00
     -2.29529114218237E-17  -7.34307244022845E-16  -7.57260155444669E-16  -1.93433742494301E-15
      3.00000000000000E-02
      8.00000000000000E-01   8.00000000000000E-01   0.00000000000000E+00   0.00000000000000E+00   9.30996694076333E-16
      4.73565556882494E-18   9.35732349645157E-16   3.73167355869758E-15   0.00000000000000E+00   0.00000000000000E+00
      0.00000000000000E+00   0.00000000000000E+00  -1.03632572965984E-18  -5.99423201089551E-17  -6.09786458386150E-17
     -1.79274156457213E-15  -1.50000000000000E+00  -1.50000000000000E+00   0.00000000000000E+00   0.00000000000000E+00
     -2.29530631492957E-17  -8.51800640657248E-16  -8.74753703806543E-16  -1.93893199412545E-15
      4.00000000000000E-02
      8.00000000000000E-01   8.00000000000000E-01   0.00000000000000E+00   0.00000000000000E+00   1.02256892069015E-15
     -1.10699881308503E-18   1.02146192187707E-15   3.73571547265305E-15   0.00000000000000E+00   0.00000000000000E+00
      0.00000000000000E+00   0.00000000000000E+00  -1.03632551516845E-18  -5.98806335744112E-17  -6.09169590895796E-17
     -1.79214709490978E-15  -2.00000000000000E+00  -2.00000000000000E+00   0.00000000000000E+00   0.00000000000000E+00
     -2.29532166118509E-17  -9.37591746175637E-16  -9.60544962787488E-16  -1.94356837774327E-15
      5.00000000000000E-02
      8.00000000000000E-01   8.00000000000000E-01   0.00000000000000E+00   0.00000000000000E+00   1.09509650351188E-15
     -2.38762722743681E-19   1.09485774078914E-15   3.73903733546583E-15   0.00000000000000E+00   0.00000000000000E+00
      0.00000000000000E+00   0.00000000000000E+00  -1.03632500444981E-18  -6.00714247976796E-17  -6.11077498021294E-17
     -1.79072785996099E-15  -2.50000000000000E+00  -2.50000000000000E+00   0.00000000000000E+00   0.00000000000000E+00
     -2.29533738534190E-17  -1.01079661713359E-15  -1.03374999098701E-15  -1.94830947550483E-15
      6.00000000000000E-02
      8.00000000000000E-01   8.00000000000000E-01   0.00000000000000E+00   0.00000000000000E+00   1.15254933793642E-15
      7.79372871569458E-18   1.16034306665211E-15   3.74114750653567E-15   0.00000000000000E+00   0.00000000000000E+00
      0.00000000000000E+00   0.00000000000000E+00  -1.03632400903340E-18  -6.05703573195290E-17  -6.16066813285624E-17
     -1.78794086158201E-15  -3.00000000000000E+00  -3.00000000000000E+00   0.00000000000000E+00   0.00000000000000E+00
     -2.29535365639274E-17  -1.07578284875962E-15  -1.09873638532355E-15  -1.95320664495366E-15
      7.00000000000000E-02
      8.00000000000000E-01   8.00000000000000E-01   0.00000000000000E+00   0.00000000000000E+00   1.19798953198987E-15
     -5.92936539085637E-18   1.19206016659902E-15   3.74166004089365E-15   0.00000000000000E+00   0.00000000000000E+00
      0.00000000000000E+00   0.00000000000000E+00  -1.03632240059745E-18  -6.15856110570509E-17  -6.26219334576483E-17
     -1.78336407466915E-15  -3.50000000000000E+00  -3.50000000000000E+00   0.00000000000000E+00   0.00000000000000E+00
     -2.29537059431230E-17  -1.10648452719825E-15  -1.12943823314137E-15  -1.95829596622451E-15
      8.00000000000000E-02
      8.00000000000000E-01   8.00000000000000E-01   0.00000000000000E+00   0.00000000000000E+00   1.23315790991075E-15
      3.41954861351299E-18   1.23657745852426E-15   3.74054220024301E-15   0.00000000000000E+00   0.00000000000000E+00
      0.00000000000000E+00   0.00000000000000E+00  -1.03632020029136E-18  -6.32447192285965E-17  -6.42810394288878E-17
     -1.77694159397453E-15  -4.00000000000000E+00  -4.00000000000000E+00   0.00000000000000E+00   0.00000000000000E+00
     -2.29538827715914E-17  -1.14934253632378E-15  -1.17229641909537E-15  -1.96360060626848E-15
      9.00000000000000E-02
      8.00000000000000E-01   8.00000000000000E-01   0.00000000000000E+00   0.00000000000000E+00   1.26100050561240E-15
      2.40946099435572E-20   1.26102460022234E-15   3.73809026126818E-15   0.00000000000000E+00   0.00000000000000E+00
      0.00000000000000E+00   0.00000000000000E+00  -1.03631754806676E-18  -6.56388353426947E-17  -6.66751528907615E-17
     -1.76895413272227E-15  -4.50000000000000E+00  -4.50000000000000E+00   0.00000000000000E+00   0.00000000000000E+00
     -2.29540675831434E-17  -1.17139537974844E-15  -1.19434944733158E-15  -1.96913612854589E-15
      1.00000000000000E-01
      8.00000000000000E-01   8.00000000000000E-01   0.00000000000000E+00   0.00000000000000E+00   1.28303279611064E-15
     -4.46113065407530E-18   1.27857166545656E-15   3.73465722911432E-15   0.00000000000000E+00   0.00000000000000E+00
      0.00000000000000E+00   0.00000000000000E+00  -1.03631458788335E-18  -6.84585695442287E-17  -6.94948841321121E-17
     -1.75974525502380E-15  -5.00000000000000E+00  -5.00000000000000E+00   0.00000000000000E+00   0.00000000000000E+00
     -2.29542607116819E-17  -1.18612252061277E-15  -1.20907678132445E-15  -1.97491197409051E-15
      1.10000000000000E-01
      8.00000000000000E-01   8.00000000000000E-01   0.00000000000000E+00   0.00000000000000E+00   1.29987659693923E-15
     -8.55426792910695E-18   1.29132232901012E-15   3.73049586737785E-15   0.00000000000000E+00   0.00000000000000E+00
      0.00000000000000E+00   0.00000000000000E+00  -1.03631141465280E-18  -7.09033873257972E-17  -7.19396987404500E-17
     -1.74956350360706E-15  -5.50000000000000E+00  -5.50000000000000E+00   0.00000000000000E+00   0.00000000000000E+00
     -2.29544623195375E-17  -1.19642816795013E-15  -1.21938263026967E-15  -1.98093236377078E-15
      1.20000000000000E-01
      8.00000000000000E-01   8.00000000000000E-01   0.00000000000000E+00   0.00000000000000E+00   1.31227793905400E-15
      1.90301046108645E-18   1.31418094951508E-15   3.72575994318043E-15   0.00000000000000E+00   0.00000000000000E+00
      0.00000000000000E+00   0.00000000000000E+00  -1.03630808269533E-18  -7.24296662301089E-17  -7.34659743128042E-17
     -1.73856179302618E-15  -6.00000000000000E+00  -6.00000000000000E+00   0.00000000000000E+00   0.00000000000000E+00
     -2.29546724581366E-17  -1.21776030274414E-15  -1.24071497520228E-15  -1.98719815015424E-15
      1.30000000000000E-01
      8.00000000000000E-01   8.00000000000000E-01   0.00000000000000E+00   0.00000000000000E+00   1.32155804876680E-15
     -2.55971659333256E-18   1.31899833217347E-15   3.72054188856500E-15   0.00000000000000E+00   0.00000000000000E+00
      0.00000000000000E+00   0.00000000000000E+00  -1.03630462345045E-18  -7.31699639525763E-17  -7.42062685760267E-17
     -1.72683353168886E-15  -6.50000000000000E+00  -6.50000000000000E+00   0.00000000000000E+00   0.00000000000000E+00
     -2.29548911188056E-17  -1.22183717247863E-15  -1.24479206359744E-15  -1.99370835687615E-15
      1.40000000000000E-01
      8.00000000000000E-01   8.00000000000000E-01   0.00000000000000E+00   0.00000000000000E+00   1.32885565864600E-15
      1.06994167111178E-17   1.33955507535712E-15   3.71489989416720E-15   0.00000000000000E+00   0.00000000000000E+00
      0.00000000000000E+00   0.00000000000000E+00  -1.03630105650990E-18  -7.34158171844032E-17  -7.44521182409131E-17
     -1.71443881252458E-15  -7.00000000000000E+00  -7.00000000000000E+00   0.00000000000000E+00   0.00000000000000E+00
     -2.29551182626523E-17  -1.24214783885355E-15  -1.26510295711620E-15  -2.00046108164262E-15
      1.50000000000000E-01
      8.00000000000000E-01   8.00000000000000E-01   0.00000000000000E+00   0.00000000000000E+00   1.33484477781657E-15
      2.60829606645715E-18   1.33745307388303E-15   3.70887286290851E-15   0.00000000000000E+00   0.00000000000000E+00
      0.00000000000000E+00   0.00000000000000E+00  -1.03629739517439E-18  -7.33687488843144E-17  -7.44050462794888E-17
     -1.70141888696745E-15  -7.50000000000000E+00  -7.50000000000000E+00   0.00000000000000E+00   0.00000000000000E+00
     -2.29553538364525E-17  -1.24009267376709E-15  -1.26304802760354E-15  -2.00745397594106E-15
      1.60000000000000E-01
      8.00000000000000E-01   8.00000000000000E-01   0.00000000000000E+00   0.00000000000000E+00   1.33988527074515E-15
      1.52297157304967E-17   1.35511498647565E-15   3.70248833880368E-15   0.00000000000000E+00   0.00000000000000E+00
      0.00000000000000E+00   0.00000000000000E+00  -1.03629364918122E-18  -7.31085836478535E-17  -7.41448772970347E-17
     -1.68780383968371E-15  -8.00000000000000E+00  -8.00000000000000E+00   0.00000000000000E+00   0.00000000000000E+00
     -2.29555977810778E-17  -1.25801451139753E-15  -1.28097010917861E-15  -2.01468449911997E-15
      1.70000000000000E-01
      8.00000000000000E-01   8.00000000000000E-01   0.00000000000000E+00   0.00000000000000E+00   1.34418603887898E-15
      4.40272699071599E-18   1.34858876586969E-15   3.69576683706370E-15   0.00000000000000E+00   0.00000000000000E+00
      0.00000000000000E+00   0.00000000000000E+00  -1.03628982610194E-18  -7.26920832217363E-17  -7.37283730478383E-17
     -1.67361678039533E-15  -8.50000000000000E+00  -8.50000000000000E+00   0.00000000000000E+00   0.00000000000000E+00
     -2.29558500360810E-17  -1.25190454278578E-15  -1.27486039282186E-15  -2.02215005666837E-15
      1.80000000000000E-01
      8.00000000000000E-01   8.00000000000000E-01   0.00000000000000E+00   0.00000000000000E+00   1.34789632532280E-15
     -1.32228254668546E-17   1.33467349985594E-15   3.68872431717619E-15   0.00000000000000E+00   0.00000000000000E+00
      0.00000000000000E+00   0.00000000000000E+00  -1.03628593210712E-18  -7.21694953619570E-17  -7.32057812940641E-17
     -1.65887624008251E-15  -9.00000000000000E+00  -9.00000000000000E+00   0.00000000000000E+00   0.00000000000000E+00
     -2.29561105422486E-17  -1.23851160801963E-15  -1.26146771856188E-15  -2.02984807709368E-15
      1.90000000000000E-01
      8.00000000000000E-01   8.00000000000000E-01   0.00000000000000E+00   0.00000000000000E+00   1.35114278499362E-15
      1.84557468442903E-19   1.35132734246206E-15   3.68137363198482E-15   0.00000000000000E+00   0.00000000000000E+00
      0.00000000000000E+00   0.00000000000000E+00  -1.03628197241101E-18  -7.15143223544968E-17  -7.25506043269078E-17
     -1.64359757848785E-15  -9.50000000000000E+00  -9.50000000000000E+00   0.00000000000000E+00   0.00000000000000E+00
     -2.29563792429922E-17  -1.25582035889216E-15  -1.27877673813515E-15  -2.03777605349697E-15
      2.00000000000000E-01
      8.00000000000000E-01   8.00000000000000E-01   0.00000000000000E+00   0.00000000000000E+00   1.35402937165188E-15
     -2.85727383620111E-18   1.35117209781568E-15   3.67372535637454E-15   0.00000000000000E+00   0.00000000000000E+00
      0.00000000000000E+00   0.00000000000000E+00  -1.03627795154117E-18  -7.07135960149910E-17  -7.17498739665322E-17
     -1.62779379368289E-15  -1.00000000000000E+01  -1.00000000000000E+01   0.00000000000000E+00   0.00000000000000E+00
     -2.29566560849682E-17  -1.25646556776418E-15  -1.27942222384915E-15  -2.04593156269165E-15
      2.10000000000000E-01
      8.00000000000000E-01   8.00000000000000E-01   0.00000000000000E+00   0.00000000000000E+00   1.35662614164578E-15
      7.20551913311826E-18   1.36383166077889E-15   3.66578820898041E-15   0.00000000000000E+00   0.00000000000000E+00
      0.00000000000000E+00   0.00000000000000E+00  -1.03627387350485E-18  -6.96140405002329E-17  -7.06503143737378E-17
     -1.61147593979088E-15  -1.05000000000000E+01  -1.05000000000000E+01   0.00000000000000E+00   0.00000000000000E+00
     -2.29569410182282E-17  -1.27022440538693E-15  -1.29318134640516E-15  -2.05431226918952E-15
      2.20000000000000E-01
      8.00000000000000E-01   8.00000000000000E-01   0.00000000000000E+00   0.00000000000000E+00   1.35899565778624E-15
      2.38332720462871E-18   1.36137898499087E-15   3.65756920120628E-15   0.00000000000000E+00   0.00000000000000E+00
      0.00000000000000E+00   0.00000000000000E+00  -1.03626974189342E-18  -6.77736186266381E-17  -6.88098883685315E-17
     -1.59465328181683E-15  -1.10000000000000E+01  -1.10000000000000E+01   0.00000000000000E+00   0.00000000000000E+00
     -2.29572339959990E-17  -1.26961186262633E-15  -1.29256909662233E-15  -2.06291591938945E-15
      2.30000000000000E-01
      8.00000000000000E-01   8.00000000000000E-01   0.00000000000000E+00   0.00000000000000E+00   1.36120025996668E-15
      1.50909515413546E-17   1.37629121150804E-15   3.64907361926195E-15   0.00000000000000E+00   0.00000000000000E+00
      0.00000000000000E+00   0.00000000000000E+00  -1.03626555995108E-18  -6.34839235020654E-17  -6.45201890620165E-17
     -1.57733328858381E-15  -1.15000000000000E+01  -1.15000000000000E+01   0.00000000000000E+00   0.00000000000000E+00
     -2.29575349743215E-17  -1.28881348747170E-15  -1.31177102244602E-15  -2.07174033067813E-15
      2.40000000000000E-01
      8.00000000000000E-01   8.00000000000000E-01   0.00000000000000E+00   0.00000000000000E+00   1.36327925771489E-15
      2.42696681510060E-17   1.38754892586590E-15   3.64030494601649E-15   0.00000000000000E+00   0.00000000000000E+00
      0.00000000000000E+00   0.00000000000000E+00  -1.03626133062746E-18  -5.11069772321275E-17  -5.21432385627550E-17
     -1.55952156583784E-15  -1.20000000000000E+01  -1.20000000000000E+01   0.00000000000000E+00   0.00000000000000E+00
     -2.29578439116601E-17  -1.31244784339148E-15  -1.33540568730314E-15  -2.08078338017865E-15
      2.50000000000000E-01
      8.00000000000000E-01   8.00000000000000E-01   0.00000000000000E+00   0.00000000000000E+00   1.36525596251922E-15
      3.58203317232125E-18   1.36883799569154E-15   3.63126486275440E-15   0.00000000000000E+00   0.00000000000000E+00
      0.00000000000000E+00   0.00000000000000E+00  -1.03625705663247E-18  -1.15693221471505E-17  -1.26055792037829E-17
     -1.54122186397339E-15  -1.25000000000000E+01  -1.25000000000000E+01   0.00000000000000E+00   0.00000000000000E+00
     -2.29581607686882E-17  -1.33327425571907E-15  -1.35623241648775E-15  -2.09004299878101E-15
      2.60000000000000E-01
      8.00000000000000E-01   8.00000000000000E-01   0.00000000000000E+00   0.00000000000000E+00   1.36714508448974E-15
     -1.67238147103965E-17   1.35042126977935E-15   3.62195355044893E-15   0.00000000000000E+00   0.00000000000000E+00
      0.00000000000000E+00   0.00000000000000E+00  -1.03625274051378E-18   1.18112218936749E-16   1.17075966196235E-16
     -1.52243637207131E-15  -1.30000000000000E+01  -1.30000000000000E+01   0.00000000000000E+00   0.00000000000000E+00
     -2.29584855085392E-17  -1.44453875046704E-15  -1.46749723597558E-15  -2.09951717837762E-15
      2.70000000000000E-01
      8.00000000000000E-01   8.00000000000000E-01   0.00000000000000E+00   0.00000000000000E+00   1.36895271024235E-15
     -1.62952251109832E-17   1.35265748513136E-15   3.61237064564908E-15   0.00000000000000E+00   0.00000000000000E+00
      0.00000000000000E+00   0.00000000000000E+00  -1.03624838478320E-18   5.41884027724382E-16   5.40847779339599E-16
     -1.50316664159566E-15  -1.35000000000000E+01  -1.35000000000000E+01   0.00000000000000E+00   0.00000000000000E+00
     -2.29588180979088E-17  -1.87054644637305E-15  -1.89350526447096E-15  -2.10920400405341E-15
      2.80000000000000E-01
      8.00000000000000E-01   8.00000000000000E-01   0.00000000000000E+00   0.00000000000000E+00   1.37067450208662E-15
     -6.37629933613634E-18   1.36429820275048E-15   3.60251736288925E-15   0.00000000000000E+00   0.00000000000000E+00
      0.00000000000000E+00   0.00000000000000E+00  -1.03624399211875E-18   1.90546297125107E-15   1.90442672725895E-15
     -1.48341563617516E-15  -1.40000000000000E+01  -1.40000000000000E+01   0.00000000000000E+00   0.00000000000000E+00
     -2.29591585095592E-17  -3.24576577149987E-15  -3.26872493000943E-15  -2.11910172671409E-15
      2.90000000000000E-01
      8.00000000000000E-01   8.00000000000000E-01   0.00000000000000E+00   0.00000000000000E+00   1.37229406895813E-15
      5.12373980210522E-18   1.37741780876024E-15   3.59240030446654E-15   0.00000000000000E+00   0.00000000000000E+00
      0.00000000000000E+00   0.00000000000000E+00  -1.03623956563718E-18   6.20433729158822E-15   6.20330105202258E-15
     -1.46319141532811E-15  -1.45000000000000E+01  -1.45000000000000E+01   0.00000000000000E+00   0.00000000000000E+00
     -2.29595067267037E-17  -7.55775935405612E-15  -7.58071886078282E-15  -2.12920888913844E-15
      3.00000000000000E-01
      8.00000000000000E-01   8.00000000000000E-01   0.00000000000000E+00   0.00000000000000E+00   1.37378167409492E-15
      8.96743802369515E-18   1.38274911211862E-15   3.58203694401176E-15   0.00000000000000E+00   0.00000000000000E+00
      0.00000000000000E+00   0.00000000000000E+00  -1.03623510908147E-18   1.94412793306863E-14   1.94402430955772E-14
     -1.44251244683648E-15  -1.50000000000000E+01  -1.50000000000000E+01   0.00000000000000E+00   0.00000000000000E+00
     -2.29598627489932E-17  -2.08000323449468E-14  -2.08229922076958E-14  -2.13952449717528E-15
      3.10000000000000E-01
      8.00000000000000E-01   8.00000000000000E-01   0.00000000000000E+00   0.00000000000000E+00   1.37509000075680E-15
      3.91724209104453E-18   1.37900724284784E-15   3.57146130289125E-15   0.00000000000000E+00   0.00000000000000E+00
      0.00000000000000E+00   0.00000000000000E+00  -1.03623062623510E-18   5.91401343969096E-14   5.91390981662834E-14
     -1.42141312411296E-15  -1.55000000000000E+01  -1.55000000000000E+01   0.00000000000000E+00   0.00000000000000E+00
     -2.29602265981455E-17  -6.04951451825333E-14  -6.05181054091314E-14  -2.15004817877829E-15
      3.20000000000000E-01
      8.00000000000000E-01   8.00000000000000E-01   0.00000000000000E+00   0.00000000000000E+00   1.37614029907258E-15
     -8.19316528944637E-20   1.37605836741968E-15   3.56072656415221E-15   0.00000000000000E+00   0.00000000000000E+00
      0.00000000000000E+00   0.00000000000000E+00  -1.03622611707850E-18   1.74783293085241E-13   1.74782256859124E-13
     -1.39994633935864E-15  -1.60000000000000E+01  -1.60000000000000E+01   0.00000000000000E+00   0.00000000000000E+00
     -2.29605983195570E-17  -1.76135354628223E-13  -1.76158315226543E-13  -2.16078022479358E-15
      3.30000000000000E-01
      8.00000000000000E-01   8.00000000000000E-01   0.00000000000000E+00   0.00000000000000E+00   1.37678700120153E-15
      3.09415078120341E-17   1.40772850901356E-15   3.54990167476530E-15   0.00000000000000E+00   0.00000000000000E+00
      0.00000000000000E+00   0.00000000000000E+00  -1.03622156221254E-18   5.01082151976716E-13   5.01081115755154E-13
     -1.37818023683879E-15  -1.65000000000000E+01  -1.65000000000000E+01   0.00000000000000E+00   0.00000000000000E+00
     -2.29609779772678E-17  -5.02465883286191E-13  -5.02488844264169E-13  -2.17172143792651E-15
      3.40000000000000E-01
      8.00000000000000E-01   8.00000000000000E-01   0.00000000000000E+00   0.00000000000000E+00   1.37673393375993E-15
     -1.35168212935729E-17   1.36321711246636E-15   3.53906288518880E-15   0.00000000000000E+00   0.00000000000000E+00
      0.00000000000000E+00   0.00000000000000E+00  -1.03621686901348E-18   1.39056361914166E-12   1.39056258292480E-12
     -1.35619001713038E-15  -1.70000000000000E+01  -1.70000000000000E+01   0.00000000000000E+00   0.00000000000000E+00
     -2.29613656449417E-17  -1.39190283867161E-12  -1.39192580003726E-12  -2.18287286805842E-15
      3.50000000000000E-01
      8.00000000000000E-01   8.00000000000000E-01   0.00000000000000E+00   0.00000000000000E+00   1.37534641892609E-15
     -3.71807734469275E-17   1.33816564547917E-15   3.52828531490466E-15   0.00000000000000E+00   0.00000000000000E+00
      0.00000000000000E+00   0.00000000000000E+00  -1.03621170955717E-18   3.72754746020110E-12   3.72754642398939E-12
     -1.33404965066426E-15  -1.75000000000000E+01  -1.75000000000000E+01   0.00000000000000E+00   0.00000000000000E+00
     -2.29617614008528E-17  -3.72886162787347E-12  -3.72888458963487E-12  -2.19423566424039E-15
      3.60000000000000E-01
      8.00000000000000E-01   8.00000000000000E-01   0.00000000000000E+00   0.00000000000000E+00   1.37127009029855E-15
     -1.61433816315370E-17   1.35512670866701E-15   3.51763937806892E-15   0.00000000000000E+00   0.00000000000000E+00