DF-ISE text

Info {
  version   = 1.0
  type      = xyplot
  datasets  = [
    "time"
    "Ntop OuterVoltage" "Ntop InnerVoltage" "Ntop QuasiFermiPotential" "Ntop DisplacementCurrent" "Ntop eCurrent"
    "Ntop hCurrent" "Ntop TotalCurrent" "Ntop Charge" "Ptop OuterVoltage" "Ptop InnerVoltage"
    "Ptop QuasiFermiPotential" "Ptop DisplacementCurrent" "Ptop eCurrent" "Ptop hCurrent" "Ptop TotalCurrent"
    "Ptop Charge" "Pbot OuterVoltage" "Pbot InnerVoltage" "Pbot QuasiFermiPotential" "Pbot DisplacementCurrent"
    "Pbot eCurrent" "Pbot hCurrent" "Pbot TotalCurrent" "Pbot Charge" ]
  functions = [
    Time
    OuterVoltage InnerVoltage QuasiFermiPotential DisplacementCurrent eCurrent
    hCurrent TotalCurrent Charge OuterVoltage InnerVoltage
    QuasiFermiPotential DisplacementCurrent eCurrent hCurrent TotalCurrent
    Charge OuterVoltage InnerVoltage QuasiFermiPotential DisplacementCurrent
    eCurrent hCurrent TotalCurrent Charge ]
}

Data {
      0.00000000000000E+00
      0.00000000000000E+00   0.00000000000000E+00   0.00000000000000E+00   0.00000000000000E+00  -3.90752884958600E-26
     -4.34889271437642E-18  -4.34889275345171E-18   2.98538904263850E-15   0.00000000000000E+00   0.00000000000000E+00
      0.00000000000000E+00   0.00000000000000E+00   3.90361726278645E-26  -1.86538793399917E-20  -1.86538403038190E-20
     -1.06768586161842E-15   0.00000000000000E+00   0.00000000000000E+00   0.00000000000000E+00   0.00000000000000E+00
      3.91027910418526E-29   4.36754659371642E-18   4.36754659375553E-18  -1.91770318102007E-15
      0.00000000000000E+00
      0.00000000000000E+00   0.00000000000000E+00   0.00000000000000E+00   0.00000000000000E+00   2.23116184440254E-26
     -4.63094859133000E-19  -4.63094836821382E-19   2.98538904274188E-15   0.00000000000000E+00   0.00000000000000E+00
      0.00000000000000E+00   0.00000000000000E+00  -2.23125220235294E-26   1.12796942652748E-20   1.12796719527528E-20
     -1.06768586161844E-15   0.00000000000000E+00   0.00000000000000E+00   0.00000000000000E+00   0.00000000000000E+00
      1.41348209637845E-30   4.51815164867216E-19   4.51815164868629E-19  -1.91770318112345E-15
      1.00000000000000E-01
      8.00000000000000E-02   8.00000000000000E-02   0.00000000000000E+00   0.00000000000000E+00   1.49381233719478E-16
      8.01491895817706E-20   1.49461382909060E-16   3.06624251227360E-15   0.00000000000000E+00   0.00000000000000E+00
      0.00000000000000E+00   0.00000000000000E+00  -9.93419891918947E-19  -1.33630207630413E-17  -1.43564406549602E-17
     -1.14779653378076E-15   0.00000000000000E+00   0.00000000000000E+00   0.00000000000000E+00   0.00000000000000E+00
     -2.28396109799583E-17  -1.12265331274141E-16  -1.35104942254099E-16  -1.91844597849284E-15
      2.00000000000000E-01
      1.60000000000000E-01   1.60000000000000E-01   0.00000000000000E+00   0.00000000000000E+00   2.14437430740077E-16
      2.73907573926940E-19   2.14711338314004E-16   3.14397453795869E-15   0.00000000000000E+00   0.00000000000000E+00
      0.00000000000000E+00   0.00000000000000E+00  -1.03467217721260E-18  -2.07018443122477E-17  -2.17365164894603E-17
     -1.22478607167739E-15   0.00000000000000E+00   0.00000000000000E+00   0.00000000000000E+00   0.00000000000000E+00
     -2.29524633392083E-17  -1.70022358485335E-16  -1.92974821824544E-16  -1.91918846628131E-15
      3.00000000000000E-01
      2.40000000000000E-01   2.40000000000000E-01   0.00000000000000E+00   0.00000000000000E+00   2.67185282388680E-16
     -7.64378651295817E-19   2.66420903737384E-16   3.21920846879255E-15   0.00000000000000E+00   0.00000000000000E+00
      0.00000000000000E+00   0.00000000000000E+00  -1.03622014826682E-18  -2.70131981292586E-17  -2.80494182775254E-17
     -1.29927759571486E-15   0.00000000000000E+00   0.00000000000000E+00   0.00000000000000E+00   0.00000000000000E+00
     -2.29524423937185E-17  -2.15419043066139E-16  -2.38371485459858E-16  -1.91993087307769E-15
      4.00000000000000E-01
      3.20000000000000E-01   3.20000000000000E-01   0.00000000000000E+00   0.00000000000000E+00   3.13941747260568E-16
      1.84750838709610E-19   3.14126498099278E-16   3.29236741969654E-15   0.00000000000000E+00   0.00000000000000E+00
      0.00000000000000E+00   0.00000000000000E+00  -1.03627496255036E-18  -3.27967299213266E-17  -3.38330048838770E-17
     -1.37169420445545E-15   0.00000000000000E+00   0.00000000000000E+00   0.00000000000000E+00   0.00000000000000E+00
     -2.29524636556065E-17  -2.57341029559794E-16  -2.80293493215401E-16  -1.92067321524110E-15
      5.00000000000000E-01
      4.00000000000000E-01   4.00000000000000E-01   0.00000000000000E+00   0.00000000000000E+00   3.56832363565072E-16
      9.20276616747464E-19   3.57752640181819E-16   3.36373237571062E-15   0.00000000000000E+00   0.00000000000000E+00
      0.00000000000000E+00   0.00000000000000E+00  -1.03628464608615E-18  -3.83197846222563E-17  -3.93560692683425E-17
     -1.44231694786022E-15   0.00000000000000E+00   0.00000000000000E+00   0.00000000000000E+00   0.00000000000000E+00
     -2.29524876671131E-17  -2.95444083246363E-16  -3.18396570913476E-16  -1.92141542785039E-15
      6.00000000000000E-01
      4.80000000000000E-01   4.80000000000000E-01   0.00000000000000E+00   0.00000000000000E+00   3.97003085005464E-16
      7.56783652333196E-19   3.97759868657797E-16   3.43347024956238E-15   0.00000000000000E+00   0.00000000000000E+00
      0.00000000000000E+00   0.00000000000000E+00  -1.03629316878317E-18  -4.35479225174620E-17  -4.45842156862451E-17
     -1.51131282556160E-15   0.00000000000000E+00   0.00000000000000E+00   0.00000000000000E+00   0.00000000000000E+00
     -2.29525117994537E-17  -3.30223141172099E-16  -3.53175652971552E-16  -1.92215742400079E-15
      7.00000000000000E-01
      5.60000000000000E-01   5.60000000000000E-01   0.00000000000000E+00   0.00000000000000E+00   4.35061396374843E-16
      2.25905806137858E-19   4.35287302180981E-16   3.50164321143851E-15   0.00000000000000E+00   0.00000000000000E+00
      0.00000000000000E+00   0.00000000000000E+00  -1.03630114308891E-18  -4.85876890666204E-17  -4.96239902097093E-17
     -1.57874409218056E-15   0.00000000000000E+00   0.00000000000000E+00   0.00000000000000E+00   0.00000000000000E+00
     -2.29525359629588E-17  -3.62710776008313E-16  -3.85663311971272E-16  -1.92289911925795E-15
      8.00000000000000E-01
      6.40000000000000E-01   6.40000000000000E-01   0.00000000000000E+00   0.00000000000000E+00   4.71351378911563E-16
     -3.07626926524814E-20   4.71320616218911E-16   3.56820797744455E-15   0.00000000000000E+00   0.00000000000000E+00
      0.00000000000000E+00   0.00000000000000E+00  -1.03630875575757E-18  -5.35102573453596E-17  -5.45465661011172E-17
     -1.64456753836001E-15   0.00000000000000E+00   0.00000000000000E+00   0.00000000000000E+00   0.00000000000000E+00
     -2.29525601474068E-17  -3.93821489970386E-16  -4.16774050117793E-16  -1.92364043908455E-15
      9.00000000000000E-01
      7.20000000000000E-01   7.20000000000000E-01   0.00000000000000E+00   0.00000000000000E+00   5.06189401655224E-16
      1.36259082516944E-18   5.07551992480394E-16   3.63301989190431E-15   0.00000000000000E+00   0.00000000000000E+00
      0.00000000000000E+00   0.00000000000000E+00  -1.03631580517919E-18  -5.84910633611168E-17  -5.95273791662960E-17
     -1.70863857538162E-15   0.00000000000000E+00   0.00000000000000E+00   0.00000000000000E+00   0.00000000000000E+00
     -2.29525843466951E-17  -4.25072028967403E-16  -4.48024613314098E-16  -1.92438131652269E-15
      1.00000000000000E+00
      8.00000000000000E-01   8.00000000000000E-01   0.00000000000000E+00   0.00000000000000E+00   5.39919035041288E-16
     -6.41259028840703E-19   5.39277776012448E-16   3.69587522408165E-15   0.00000000000000E+00   0.00000000000000E+00
      0.00000000000000E+00   0.00000000000000E+00  -1.03632210370650E-18  -6.37641061267468E-17  -6.48004282304533E-17
     -1.77075354325302E-15   0.00000000000000E+00   0.00000000000000E+00   0.00000000000000E+00   0.00000000000000E+00
     -2.29526085554384E-17  -4.51524739226556E-16  -4.74477347781994E-16  -1.92512168082862E-15
      0.00000000000000E+00
      8.00000000000000E-01   8.00000000000000E-01   0.00000000000000E+00   0.00000000000000E+00   5.39919035149649E-16
     -2.33758841284024E-19   5.39685276308365E-16   3.69587522408164E-15   0.00000000000000E+00   0.00000000000000E+00
      0.00000000000000E+00   0.00000000000000E+00  -1.03632221207712E-18  -6.37735795696965E-17  -6.48099017817736E-17
     -1.77075354325303E-15   0.00000000000000E+00   0.00000000000000E+00   0.00000000000000E+00   0.00000000000000E+00
     -2.29526085554385E-17  -4.51922765971152E-16  -4.74875374526591E-16  -1.92512168082862E-15
      1.00000000000000E-02
      8.00000000000000E-01   8.00000000000000E-01   0.00000000000000E+00   0.00000000000000E+00   6.94573952139225E-16
     -2.35243825602886E-18   6.92221513883196E-16   3.70047290720451E-15   0.00000000000000E+00   0.00000000000000E+00
      0.00000000000000E+00   0.00000000000000E+00  -1.03632220634429E-18  -6.31559872423820E-17  -6.41923094487263E-17
     -1.77073505715349E-15  -5.00000000000000E-01  -5.00000000000000E-01   0.00000000000000E+00   0.00000000000000E+00
     -2.29527595367710E-17  -6.05076444897699E-16  -6.28029204434470E-16  -1.92973785005101E-15
      2.00000000000000E-02
      8.00000000000000E-01   8.00000000000000E-01   0.00000000000000E+00   0.00000000000000E+00   8.23108423872243E-16
      1.64861781872183E-19   8.23273285654115E-16   3.70498695809276E-15   0.00000000000000E+00   0.00000000000000E+00
      0.00000000000000E+00   0.00000000000000E+00  -1.03632218038335E-18  -6.27285050799579E-17  -6.37648272603413E-17
     -1.77065136344271E-15  -1.00000000000000E+00  -1.00000000000000E+00   0.00000000000000E+00   0.00000000000000E+00
     -2.29529113614598E-17  -7.36555547032315E-16  -7.59508458393774E-16  -1.93433559465006E-15
      3.00000000000000E-02
      8.00000000000000E-01   8.00000000000000E-01   0.00000000000000E+00   0.00000000000000E+00   9.34210348597409E-16
      8.16666141256225E-19   9.35027014738665E-16   3.70926762077312E-15   0.00000000000000E+00   0.00000000000000E+00
      0.00000000000000E+00   0.00000000000000E+00  -1.03632208453681E-18  -6.24642060273154E-17  -6.35005281118522E-17
     -1.77034247863036E-15  -1.50000000000000E+00  -1.50000000000000E+00   0.00000000000000E+00   0.00000000000000E+00
     -2.29530629227439E-17  -8.48573423704069E-16  -8.71526486626813E-16  -1.93892514214276E-15
      4.00000000000000E-02
      8.00000000000000E-01   8.00000000000000E-01   0.00000000000000E+00   0.00000000000000E+00   1.02713673388215E-15
      3.92588933229796E-18   1.03106262321445E-15   3.71296370461731E-15   0.00000000000000E+00   0.00000000000000E+00
      0.00000000000000E+00   0.00000000000000E+00  -1.03632179702498E-18  -6.24566631221825E-17  -6.34929849192075E-17
     -1.76941567399310E-15  -2.00000000000000E+00  -2.00000000000000E+00   0.00000000000000E+00   0.00000000000000E+00
     -2.29532159376745E-17  -9.44616422357569E-16  -9.67569638295244E-16  -1.94354803062420E-15
      5.00000000000000E-02
      8.00000000000000E-01   8.00000000000000E-01   0.00000000000000E+00   0.00000000000000E+00   1.10231079359571E-15
     -2.93831086187631E-18   1.09937248273384E-15   3.71540623076597E-15   0.00000000000000E+00   0.00000000000000E+00
      0.00000000000000E+00   0.00000000000000E+00  -1.03632109530617E-18  -6.28219632561871E-17  -6.38582843514933E-17
     -1.76714594619192E-15  -2.50000000000000E+00  -2.50000000000000E+00   0.00000000000000E+00   0.00000000000000E+00
     -2.29533722204801E-17  -1.01256082616186E-15  -1.03551419838234E-15  -1.94826028457404E-15
      6.00000000000000E-02
      8.00000000000000E-01   8.00000000000000E-01   0.00000000000000E+00   0.00000000000000E+00   1.16365684817450E-15
     -5.56731551824663E-18   1.15808953265625E-15   3.71572547195153E-15   0.00000000000000E+00   0.00000000000000E+00
      0.00000000000000E+00   0.00000000000000E+00  -1.03631971154546E-18  -6.37926534956833E-17  -6.48289732072288E-17
     -1.76261793243061E-15  -3.00000000000000E+00  -3.00000000000000E+00   0.00000000000000E+00   0.00000000000000E+00
     -2.29535332683559E-17  -1.07030702618067E-15  -1.09326055944902E-15  -1.95310753952092E-15
      7.00000000000000E-02
      8.00000000000000E-01   8.00000000000000E-01   0.00000000000000E+00   0.00000000000000E+00   1.21321816592439E-15
      6.74582601904811E-18   1.21996399194344E-15   3.71342655194326E-15   0.00000000000000E+00   0.00000000000000E+00
      0.00000000000000E+00   0.00000000000000E+00  -1.03631753039868E-18  -6.56937293607648E-17  -6.67300468911635E-17
     -1.75530042416436E-15  -3.50000000000000E+00  -3.50000000000000E+00   0.00000000000000E+00   0.00000000000000E+00
     -2.29537002862626E-17  -1.13028024476601E-15  -1.15323394505228E-15  -1.95812612777892E-15
      8.00000000000000E-02
      8.00000000000000E-01   8.00000000000000E-01   0.00000000000000E+00   0.00000000000000E+00   1.25194983390318E-15
      3.63381382922555E-19   1.25231321528610E-15   3.70884096895597E-15   0.00000000000000E+00   0.00000000000000E+00
      0.00000000000000E+00   0.00000000000000E+00  -1.03631470955547E-18  -6.87179140657615E-17  -6.97542287753170E-17
     -1.74549426284634E-15  -4.00000000000000E+00  -4.00000000000000E+00   0.00000000000000E+00   0.00000000000000E+00
     -2.29538743016285E-17  -1.15960511220915E-15  -1.18255898651078E-15  -1.96334670610962E-15
      9.00000000000000E-02
      8.00000000000000E-01   8.00000000000000E-01   0.00000000000000E+00   0.00000000000000E+00   1.28168687874021E-15
     -1.45232223842578E-18   1.28023455650178E-15   3.70268011163283E-15   0.00000000000000E+00   0.00000000000000E+00
      0.00000000000000E+00   0.00000000000000E+00  -1.03631149512154E-18  -7.25099224540480E-17  -7.35462339491695E-17
     -1.73388825656363E-15  -4.50000000000000E+00  -4.50000000000000E+00   0.00000000000000E+00   0.00000000000000E+00
     -2.29540560808626E-17  -1.18373426647175E-15  -1.20668832255261E-15  -1.96879185506920E-15
      1.00000000000000E-01
      8.00000000000000E-01   8.00000000000000E-01   0.00000000000000E+00   0.00000000000000E+00   1.30319061546251E-15
      1.82324966201724E-18   1.30501386512453E-15   3.69548131442406E-15   0.00000000000000E+00   0.00000000000000E+00
      0.00000000000000E+00   0.00000000000000E+00  -1.03630804933498E-18  -7.57740186935168E-17  -7.68103267428518E-17
     -1.72100781319021E-15  -5.00000000000000E+00  -5.00000000000000E+00   0.00000000000000E+00   0.00000000000000E+00
     -2.29542460401868E-17  -1.20524929234149E-15  -1.22820353838167E-15  -1.97447350123384E-15
      1.10000000000000E-01
      8.00000000000000E-01   8.00000000000000E-01   0.00000000000000E+00   0.00000000000000E+00   1.31772958965172E-15
     -6.13436779990849E-18   1.31159522185181E-15   3.68754637297636E-15   0.00000000000000E+00   0.00000000000000E+00
      0.00000000000000E+00   0.00000000000000E+00  -1.03630445288604E-18  -7.75899225864708E-17  -7.86262270393568E-17
     -1.70715020409903E-15  -5.50000000000000E+00  -5.50000000000000E+00   0.00000000000000E+00   0.00000000000000E+00
     -2.29544443515485E-17  -1.21001455046090E-15  -1.23296899481245E-15  -1.98039616887733E-15
      1.20000000000000E-01
      8.00000000000000E-01   8.00000000000000E-01   0.00000000000000E+00   0.00000000000000E+00   1.32765730060834E-15
     -6.13823794446744E-18   1.32151906266388E-15   3.67903887511918E-15   0.00000000000000E+00   0.00000000000000E+00
      0.00000000000000E+00   0.00000000000000E+00  -1.03630074529609E-18  -7.82078502571947E-17  -7.92441510024908E-17
     -1.69247824360364E-15  -6.00000000000000E+00  -6.00000000000000E+00   0.00000000000000E+00   0.00000000000000E+00
     -2.29546510631583E-17  -1.21932026059823E-15  -1.24227491166138E-15  -1.98656063151554E-15
      1.30000000000000E-01
      8.00000000000000E-01   8.00000000000000E-01   0.00000000000000E+00   0.00000000000000E+00   1.33493482612797E-15
     -1.76722170101316E-18   1.33316760442696E-15   3.67005210961704E-15   0.00000000000000E+00   0.00000000000000E+00
      0.00000000000000E+00   0.00000000000000E+00  -1.03629694784677E-18  -7.81199880004037E-17  -7.91562849482504E-17
     -1.67708620699772E-15  -6.50000000000000E+00  -6.50000000000000E+00   0.00000000000000E+00   0.00000000000000E+00
     -2.29548661653741E-17  -1.23105645331334E-15  -1.25401131947871E-15  -1.99296590261931E-15
      1.40000000000000E-01
      8.00000000000000E-01   8.00000000000000E-01   0.00000000000000E+00   0.00000000000000E+00   1.34065670671791E-15
      1.95773659621077E-17   1.36023407268002E-15   3.66064204393882E-15   0.00000000000000E+00   0.00000000000000E+00
      0.00000000000000E+00   0.00000000000000E+00  -1.03629307337801E-18  -7.76684857838233E-17  -7.87047788572013E-17
     -1.66103188668343E-15  -7.00000000000000E+00  -7.00000000000000E+00   0.00000000000000E+00   0.00000000000000E+00
     -2.29550896212412E-17  -1.25857420420157E-15  -1.28152929382281E-15  -1.99961015725538E-15
      1.50000000000000E-01
      8.00000000000000E-01   8.00000000000000E-01   0.00000000000000E+00   0.00000000000000E+00   1.34536162333364E-15
     -3.50642468178183E-18   1.34185519865186E-15   3.65084261334045E-15   0.00000000000000E+00   0.00000000000000E+00
      0.00000000000000E+00   0.00000000000000E+00  -1.03628913039161E-18  -7.69958445138198E-17  -7.80321336442114E-17
     -1.64435145445328E-15  -7.50000000000000E+00  -7.50000000000000E+00   0.00000000000000E+00   0.00000000000000E+00
     -2.29553213806131E-17  -1.24086774362704E-15  -1.26382306500765E-15  -2.00649115888717E-15
      1.60000000000000E-01
      8.00000000000000E-01   8.00000000000000E-01   0.00000000000000E+00   0.00000000000000E+00   1.34931751906414E-15
      1.48363598226748E-17   1.36415387888682E-15   3.64067300994533E-15   0.00000000000000E+00   0.00000000000000E+00
      0.00000000000000E+00   0.00000000000000E+00  -1.03628512488893E-18  -7.61550716208562E-17  -7.71913567457451E-17
     -1.62706654470022E-15  -8.00000000000000E+00  -8.00000000000000E+00   0.00000000000000E+00   0.00000000000000E+00
     -2.29555613869712E-17  -1.26400696075410E-15  -1.28696252214107E-15  -2.01360646524511E-15
      1.70000000000000E-01
      8.00000000000000E-01   8.00000000000000E-01   0.00000000000000E+00   0.00000000000000E+00   1.35268100527156E-15
     -1.08762804141941E-17   1.34180472485736E-15   3.63014121362144E-15   0.00000000000000E+00   0.00000000000000E+00
      0.00000000000000E+00   0.00000000000000E+00  -1.03628106127277E-18  -7.51703176215822E-17  -7.62065986828550E-17
     -1.60918768412367E-15  -8.50000000000000E+00  -8.50000000000000E+00   0.00000000000000E+00   0.00000000000000E+00
     -2.29558095807504E-17  -1.24264231659376E-15  -1.26559812617451E-15  -2.02095352949777E-15
      1.80000000000000E-01
      8.00000000000000E-01   8.00000000000000E-01   0.00000000000000E+00   0.00000000000000E+00   1.35556375698332E-15
     -6.86956536635999E-18   1.34869419161696E-15   3.61924561522950E-15   0.00000000000000E+00   0.00000000000000E+00
      0.00000000000000E+00   0.00000000000000E+00  -1.03627694283071E-18  -7.40668265402385E-17  -7.51031034830693E-17
     -1.59071586777463E-15  -9.00000000000000E+00  -9.00000000000000E+00   0.00000000000000E+00   0.00000000000000E+00
     -2.29560659008868E-17  -1.25063502223300E-15  -1.27359108813389E-15  -2.02852974745488E-15
      1.90000000000000E-01
      8.00000000000000E-01   8.00000000000000E-01   0.00000000000000E+00   0.00000000000000E+00   1.35804649270734E-15
      1.69903522079626E-17   1.37503684491530E-15   3.60797578930804E-15   0.00000000000000E+00   0.00000000000000E+00
      0.00000000000000E+00   0.00000000000000E+00  -1.03627277203427E-18  -7.27193342619816E-17  -7.37556070340159E-17
     -1.57164330799875E-15  -9.50000000000000E+00  -9.50000000000000E+00   0.00000000000000E+00   0.00000000000000E+00
     -2.29563302855636E-17  -1.27832490759572E-15  -1.30128123788129E-15  -2.03633248130929E-15
      2.00000000000000E-01
      8.00000000000000E-01   8.00000000000000E-01   0.00000000000000E+00   0.00000000000000E+00   1.36021460098572E-15
     -1.97788210758976E-17   1.34043577990982E-15   3.59631358432092E-15   0.00000000000000E+00   0.00000000000000E+00
      0.00000000000000E+00   0.00000000000000E+00  -1.03626855081216E-18  -7.08742970171178E-17  -7.19105655679299E-17
     -1.55195448908565E-15  -1.00000000000000E+01  -1.00000000000000E+01   0.00000000000000E+00   0.00000000000000E+00
     -2.29566026733939E-17  -1.24556861166850E-15  -1.26852521434189E-15  -2.04435909523527E-15
      2.10000000000000E-01
      8.00000000000000E-01   8.00000000000000E-01   0.00000000000000E+00   0.00000000000000E+00   1.36214909074394E-15
      7.58378838179153E-18   1.36973287912573E-15   3.58423653436725E-15   0.00000000000000E+00   0.00000000000000E+00
      0.00000000000000E+00   0.00000000000000E+00  -1.03626428097203E-18  -6.73932335623021E-17  -6.84294978432741E-17
     -1.53162947396730E-15  -1.05000000000000E+01  -1.05000000000000E+01   0.00000000000000E+00   0.00000000000000E+00
     -2.29568830069609E-17  -1.27834649827550E-15  -1.30130338128246E-15  -2.05260706039995E-15
      2.20000000000000E-01
      8.00000000000000E-01   8.00000000000000E-01   0.00000000000000E+00   0.00000000000000E+00   1.36390588183359E-15
     -2.13377649026768E-18   1.36177210534332E-15   3.57172681414571E-15   0.00000000000000E+00   0.00000000000000E+00
      0.00000000000000E+00   0.00000000000000E+00  -1.03625996497830E-18  -5.82165553922231E-17  -5.92528153572014E-17
     -1.51065260093348E-15  -1.10000000000000E+01  -1.10000000000000E+01   0.00000000000000E+00   0.00000000000000E+00
     -2.29571712416158E-17  -1.27956211874450E-15  -1.30251928998612E-15  -2.06107421321224E-15
      2.30000000000000E-01
      8.00000000000000E-01   8.00000000000000E-01   0.00000000000000E+00   0.00000000000000E+00   1.36552355330302E-15
     -5.02039822272173E-18   1.36050315508030E-15   3.55878839869251E-15   0.00000000000000E+00   0.00000000000000E+00
      0.00000000000000E+00   0.00000000000000E+00  -1.03625560716651E-18  -2.89561638549135E-17  -2.99924194620800E-17
     -1.48902917997623E-15  -1.15000000000000E+01  -1.15000000000000E+01   0.00000000000000E+00   0.00000000000000E+00
     -2.29574673613687E-17  -1.30755326825685E-15  -1.33051073561822E-15  -2.06975921871627E-15
      2.40000000000000E-01
      8.00000000000000E-01   8.00000000000000E-01   0.00000000000000E+00   0.00000000000000E+00   1.36702371751101E-15
      1.82774088624234E-19   1.36720649159964E-15   3.54546781125412E-15   0.00000000000000E+00   0.00000000000000E+00
      0.00000000000000E+00   0.00000000000000E+00  -1.03625121489930E-18   7.01299884062898E-17   6.90937371913905E-17
     -1.46680573324101E-15  -1.20000000000000E+01  -1.20000000000000E+01   0.00000000000000E+00   0.00000000000000E+00
     -2.29577713964331E-17  -1.41334245739459E-15  -1.43630022879103E-15  -2.07866207801311E-15
      2.50000000000000E-01
      8.00000000000000E-01   8.00000000000000E-01   0.00000000000000E+00   0.00000000000000E+00   1.36840937683310E-15
      7.33345776553799E-18   1.37574283459864E-15   3.53186111589362E-15   0.00000000000000E+00   0.00000000000000E+00
      0.00000000000000E+00   0.00000000000000E+00  -1.03624679843891E-18   4.06748406134278E-16   4.05712159335839E-16
     -1.44407691624350E-15  -1.25000000000000E+01  -1.25000000000000E+01   0.00000000000000E+00   0.00000000000000E+00
     -2.29580834260340E-17  -1.75849691050845E-15  -1.78145499393449E-15  -2.08778419965013E-15
      2.60000000000000E-01
      8.00000000000000E-01   8.00000000000000E-01   0.00000000000000E+00   0.00000000000000E+00   1.36966761071356E-15
      8.80783838266637E-19   1.37054839455183E-15   3.51809302158578E-15   0.00000000000000E+00   0.00000000000000E+00
      0.00000000000000E+00   0.00000000000000E+00  -1.03624236892899E-18   1.52787359984267E-15   1.52683735747374E-15
     -1.42096530563406E-15  -1.30000000000000E+01  -1.30000000000000E+01   0.00000000000000E+00   0.00000000000000E+00
     -2.29584035553579E-17  -2.87442734847021E-15  -2.89738575202557E-15  -2.09712771595173E-15
      2.70000000000000E-01
      8.00000000000000E-01   8.00000000000000E-01   0.00000000000000E+00   0.00000000000000E+00   1.37077505058449E-15
      4.24427758595858E-17   1.41321782644408E-15   3.50428233120538E-15   0.00000000000000E+00   0.00000000000000E+00
      0.00000000000000E+00   0.00000000000000E+00  -1.03623793587429E-18   5.15733157153268E-15   5.15629533359680E-15
     -1.39758782415116E-15  -1.35000000000000E+01  -1.35000000000000E+01   0.00000000000000E+00   0.00000000000000E+00
     -2.29587318822532E-17  -6.54655442815862E-15  -6.56951316004087E-15  -2.10669450705423E-15
      2.80000000000000E-01
      8.00000000000000E-01   8.00000000000000E-01   0.00000000000000E+00   0.00000000000000E+00   1.37170149358088E-15
      7.62470642694489E-18   1.37932620000782E-15   3.49052056307702E-15   0.00000000000000E+00   0.00000000000000E+00
      0.00000000000000E+00   0.00000000000000E+00  -1.03623350572203E-18   1.65356788098376E-14   1.65346425763319E-14
     -1.37403491390078E-15  -1.40000000000000E+01  -1.40000000000000E+01   0.00000000000000E+00   0.00000000000000E+00
     -2.29590684781900E-17  -1.78910097078615E-14  -1.79139687763397E-14  -2.11648564917624E-15
      2.90000000000000E-01
      8.00000000000000E-01   8.00000000000000E-01   0.00000000000000E+00   0.00000000000000E+00   1.37240735192925E-15
      1.71271631257347E-17   1.38953451505498E-15   3.47687023208270E-15   0.00000000000000E+00   0.00000000000000E+00
      0.00000000000000E+00   0.00000000000000E+00  -1.03622908076679E-18   5.10127043312131E-14   5.10116681021324E-14
     -1.35036882809491E-15  -1.45000000000000E+01  -1.45000000000000E+01   0.00000000000000E+00   0.00000000000000E+00
     -2.29594133876803E-17  -5.23782432037999E-14  -5.24012026171875E-14  -2.12650140398779E-15
      3.00000000000000E-01
      8.00000000000000E-01   8.00000000000000E-01   0.00000000000000E+00   0.00000000000000E+00   1.37282947813032E-15
      5.67161395624268E-19   1.37339663952595E-15   3.46337269917569E-15   0.00000000000000E+00   0.00000000000000E+00
      0.00000000000000E+00   0.00000000000000E+00  -1.03622459167784E-18   1.51861972231612E-13   1.51860936007020E-13
     -1.32663124879959E-15  -1.50000000000000E+01  -1.50000000000000E+01   0.00000000000000E+00   0.00000000000000E+00
     -2.29597666360413E-17  -1.53211372879911E-13  -1.53234332646547E-13  -2.13674145037611E-15
      3.10000000000000E-01
      8.00000000000000E-01   8.00000000000000E-01   0.00000000000000E+00   0.00000000000000E+00   1.37284569074423E-15
      3.22497693684170E-17   1.40509546011265E-15   3.45005685807944E-15   0.00000000000000E+00   0.00000000000000E+00
      0.00000000000000E+00   0.00000000000000E+00  -1.03622003330905E-18   4.36369996265981E-13   4.36368960045948E-13
     -1.30285172352839E-15  -1.55000000000000E+01  -1.55000000000000E+01   0.00000000000000E+00   0.00000000000000E+00
     -2.29601282378888E-17  -4.37751095377823E-13  -4.37774055506061E-13  -2.14720513455105E-15
      3.20000000000000E-01
      8.00000000000000E-01   8.00000000000000E-01   0.00000000000000E+00   0.00000000000000E+00   1.37219545990617E-15
      8.24366727919503E-18   1.38043912718536E-15   3.43694584747955E-15   0.00000000000000E+00   0.00000000000000E+00
      0.00000000000000E+00   0.00000000000000E+00  -1.03621467650442E-18   1.20976777956597E-12   1.20976674335130E-12
     -1.27905415564785E-15  -1.60000000000000E+01  -1.60000000000000E+01   0.00000000000000E+00   0.00000000000000E+00
     -2.29604982047274E-17  -1.21112422198028E-12  -1.21114718247848E-12  -2.15789169183170E-15
      3.30000000000000E-01
      8.00000000000000E-01   8.00000000000000E-01   0.00000000000000E+00   0.00000000000000E+00   1.37030718311844E-15
     -7.72081494371733E-19   1.36953510162407E-15   3.42406204509909E-15   0.00000000000000E+00   0.00000000000000E+00
      0.00000000000000E+00   0.00000000000000E+00  -1.03620992577879E-18   3.23358937262203E-12   3.23358833641211E-12
     -1.25526154937046E-15  -1.65000000000000E+01  -1.65000000000000E+01   0.00000000000000E+00   0.00000000000000E+00
     -2.29608765536079E-17  -3.23493491063719E-12  -3.23495787151374E-12  -2.16880049572865E-15
      3.40000000000000E-01
      8.00000000000000E-01   8.00000000000000E-01   0.00000000000000E+00   0.00000000000000E+00   1.36594758881769E-15
     -1.56766699079871E-19   1.36579082211861E-15   3.41143139896573E-15   0.00000000000000E+00   0.00000000000000E+00
      0.00000000000000E+00   0.00000000000000E+00  -1.03620264293865E-18   8.32569363086870E-12   8.32569259466606E-12
     -1.23149994533449E-15  -1.70000000000000E+01  -1.70000000000000E+01   0.00000000000000E+00   0.00000000000000E+00
     -2.29612633210147E-17  -8.32703542422491E-12  -8.32705838548823E-12  -2.17993145363123E-15
      3.50000000000000E-01
      8.00000000000000E-01   8.00000000000000E-01   0.00000000000000E+00   0.00000000000000E+00   1.35659596550877E-15
      1.56191982989139E-17   1.37221516380768E-15   3.39908823685304E-15   0.00000000000000E+00   0.00000000000000E+00
      0.00000000000000E+00   0.00000000000000E+00  -1.03618921331499E-18   2.06265267361688E-11   2.06265256999796E-11
     -1.20780248799937E-15  -1.75000000000000E+01  -1.75000000000000E+01   0.00000000000000E+00   0.00000000000000E+00
     -2.29616585890918E-17  -2.06278749534848E-11  -2.06278979151434E-11  -2.19128574885367E-15
      3.60000000000000E-01
      8.00000000000000E-01   8.00000000000000E-01   0.00000000000000E+00   0.00000000000000E+00   1.33758517412131E-15
      1.40511276873174E-17   1.35163630180863E-15   3.38708170596690E-15   0.00000000000000E+00   0.00000000000000E+00