DF-ISE text

Info {
  version   = 1.0
  type      = xyplot
  datasets  = [
    "time"
    "Ntop OuterVoltage" "Ntop InnerVoltage" "Ntop QuasiFermiPotential" "Ntop DisplacementCurrent" "Ntop eCurrent"
    "Ntop hCurrent" "Ntop TotalCurrent" "Ntop Charge" "Ptop OuterVoltage" "Ptop InnerVoltage"
    "Ptop QuasiFermiPotential" "Ptop DisplacementCurrent" "Ptop eCurrent" "Ptop hCurrent" "Ptop TotalCurrent"
    "Ptop Charge" "Pbot OuterVoltage" "Pbot InnerVoltage" "Pbot QuasiFermiPotential" "Pbot DisplacementCurrent"
    "Pbot eCurrent" "Pbot hCurrent" "Pbot TotalCurrent" "Pbot Charge" ]
  functions = [
    Time
    OuterVoltage InnerVoltage QuasiFermiPotential DisplacementCurrent eCurrent
    hCurrent TotalCurrent Charge OuterVoltage InnerVoltage
    QuasiFermiPotential DisplacementCurrent eCurrent hCurrent TotalCurrent
    Charge OuterVoltage InnerVoltage QuasiFermiPotential DisplacementCurrent
    eCurrent hCurrent TotalCurrent Charge ]
}

Data {
      0.00000000000000E+00
      0.00000000000000E+00   0.00000000000000E+00   0.00000000000000E+00   0.00000000000000E+00  -2.90660668193670E-26
     -4.49232625818975E-18  -4.49232628725582E-18   2.84926584570403E-15   0.00000000000000E+00   0.00000000000000E+00
      0.00000000000000E+00   0.00000000000000E+00   2.90509736087087E-26   1.78568084743868E-19   1.78568113794842E-19
     -9.31562664688762E-16   0.00000000000000E+00   0.00000000000000E+00   0.00000000000000E+00   0.00000000000000E+00
      1.50756276133666E-29   4.31375817344590E-18   4.31375817346098E-18  -1.91770318101526E-15
      0.00000000000000E+00
      0.00000000000000E+00   0.00000000000000E+00   0.00000000000000E+00   0.00000000000000E+00   8.09278269470330E-27
     -3.53398561406431E-19  -3.53398553313649E-19   2.84926584580740E-15   0.00000000000000E+00   0.00000000000000E+00
      0.00000000000000E+00   0.00000000000000E+00  -8.09227560321602E-27  -1.60537263689284E-21  -1.60538072916845E-21
     -9.31562664688775E-16   0.00000000000000E+00   0.00000000000000E+00   0.00000000000000E+00   0.00000000000000E+00
      3.86067024411880E-34   3.55003934042817E-19   3.55003934042817E-19  -1.91770318111863E-15
      1.00000000000000E-01
      8.00000000000000E-02   8.00000000000000E-02   0.00000000000000E+00   0.00000000000000E+00   1.49895278310802E-16
      3.88880002388302E-19   1.50284158313190E-16   2.93976108804210E-15   0.00000000000000E+00   0.00000000000000E+00
      0.00000000000000E+00   0.00000000000000E+00  -9.93419982822721E-19  -1.39383689834931E-17  -1.49317889663158E-17
     -1.02131510956355E-15   0.00000000000000E+00   0.00000000000000E+00   0.00000000000000E+00   0.00000000000000E+00
     -2.28396109792318E-17  -1.12512758367643E-16  -1.35352369346875E-16  -1.91844597847855E-15
      2.00000000000000E-01
      1.60000000000000E-01   1.60000000000000E-01   0.00000000000000E+00   0.00000000000000E+00   2.15283219378907E-16
      6.04318032250491E-19   2.15887537411158E-16   3.02670134902846E-15   0.00000000000000E+00   0.00000000000000E+00
      0.00000000000000E+00   0.00000000000000E+00  -1.03467226186210E-18  -2.15983392165871E-17  -2.26330114784492E-17
     -1.10751288278403E-15   0.00000000000000E+00   0.00000000000000E+00   0.00000000000000E+00   0.00000000000000E+00
     -2.29524633388782E-17  -1.70302062593831E-16  -1.93254525932709E-16  -1.91918846624443E-15
      3.00000000000000E-01
      2.40000000000000E-01   2.40000000000000E-01   0.00000000000000E+00   0.00000000000000E+00   2.68312413089814E-16
      1.88078983044690E-19   2.68500492072858E-16   3.11068133715865E-15   0.00000000000000E+00   0.00000000000000E+00
      0.00000000000000E+00   0.00000000000000E+00  -1.03622021761982E-18  -2.81783922572187E-17  -2.92146124748386E-17
     -1.19075046417056E-15   0.00000000000000E+00   0.00000000000000E+00   0.00000000000000E+00   0.00000000000000E+00
     -2.29524423937162E-17  -2.16333437204304E-16  -2.39285879598020E-16  -1.91993087298809E-15
      4.00000000000000E-01
      3.20000000000000E-01   3.20000000000000E-01   0.00000000000000E+00   0.00000000000000E+00   3.15313300984555E-16
     -3.51103382343768E-19   3.14962197602211E-16   3.19207320448616E-15   0.00000000000000E+00   0.00000000000000E+00
      0.00000000000000E+00   0.00000000000000E+00  -1.03627500866584E-18  -3.42455971948213E-17  -3.52818722034872E-17
     -1.27139998945396E-15   0.00000000000000E+00   0.00000000000000E+00   0.00000000000000E+00   0.00000000000000E+00
     -2.29524636555997E-17  -2.56727861743124E-16  -2.79680325398724E-16  -1.92067321503220E-15
      5.00000000000000E-01
      4.00000000000000E-01   4.00000000000000E-01   0.00000000000000E+00   0.00000000000000E+00   3.58383247130736E-16
      1.53268929072970E-19   3.58536516059809E-16   3.27109310543789E-15   0.00000000000000E+00   0.00000000000000E+00
      0.00000000000000E+00   0.00000000000000E+00  -1.03628466041436E-18  -3.99212091688220E-17  -4.09574938292364E-17
     -1.34967767806109E-15   0.00000000000000E+00   0.00000000000000E+00   0.00000000000000E+00   0.00000000000000E+00
     -2.29524876670975E-17  -2.94626534563475E-16  -3.17579022230573E-16  -1.92141542737680E-15
      6.00000000000000E-01
      4.80000000000000E-01   4.80000000000000E-01   0.00000000000000E+00   0.00000000000000E+00   3.98704451574870E-16
      3.89718875752137E-19   3.99094170450622E-16   3.34783511389188E-15   0.00000000000000E+00   0.00000000000000E+00
      0.00000000000000E+00   0.00000000000000E+00  -1.03629314304905E-18  -4.53125461085150E-17  -4.63488392515641E-17
     -1.42567769094803E-15   0.00000000000000E+00   0.00000000000000E+00   0.00000000000000E+00   0.00000000000000E+00
     -2.29525117994193E-17  -3.29792819399639E-16  -3.52745331199058E-16  -1.92215742294385E-15
      7.00000000000000E-01
      5.60000000000000E-01   5.60000000000000E-01   0.00000000000000E+00   0.00000000000000E+00   4.36962559820181E-16
      4.55948782322906E-19   4.37418508602504E-16   3.42228409627012E-15   0.00000000000000E+00   0.00000000000000E+00
      0.00000000000000E+00   0.00000000000000E+00  -1.03630105876381E-18  -5.05467737084511E-17  -5.15830747672149E-17
     -1.49938497936354E-15   0.00000000000000E+00   0.00000000000000E+00   0.00000000000000E+00   0.00000000000000E+00
     -2.29525359628824E-17  -3.62882897872406E-16  -3.85835433835289E-16  -1.92289911690659E-15
      8.00000000000000E-01
      6.40000000000000E-01   6.40000000000000E-01   0.00000000000000E+00   0.00000000000000E+00   4.73533142675303E-16
      4.46719522498313E-19   4.73979862197801E-16   3.49431666667766E-15   0.00000000000000E+00   0.00000000000000E+00
      0.00000000000000E+00   0.00000000000000E+00  -1.03630860786369E-18  -5.57607237270120E-17  -5.67970323348756E-17
     -1.57067623287822E-15   0.00000000000000E+00   0.00000000000000E+00   0.00000000000000E+00   0.00000000000000E+00
     -2.29525601472340E-17  -3.94230269715691E-16  -4.17182829862925E-16  -1.92364043379944E-15
      9.00000000000000E-01
      7.20000000000000E-01   7.20000000000000E-01   0.00000000000000E+00   0.00000000000000E+00   5.08734873446224E-16
      2.91884159942581E-19   5.09026757606166E-16   3.56370706226094E-15   0.00000000000000E+00   0.00000000000000E+00
      0.00000000000000E+00   0.00000000000000E+00  -1.03631556940807E-18  -6.11168519218418E-17  -6.21531674912499E-17
     -1.63932575790119E-15   0.00000000000000E+00   0.00000000000000E+00   0.00000000000000E+00   0.00000000000000E+00
     -2.29525843462976E-17  -4.23921005768619E-16  -4.46873590114916E-16  -1.92438130435975E-15
      1.00000000000000E+00
      8.00000000000000E-01   8.00000000000000E-01   0.00000000000000E+00   0.00000000000000E+00   5.42918530220900E-16
      1.05849782006481E-18   5.43977028040964E-16   3.63017869483369E-15   0.00000000000000E+00   0.00000000000000E+00
      0.00000000000000E+00   0.00000000000000E+00  -1.03632171418297E-18  -6.68497203479118E-17  -6.78860420620948E-17
     -1.70505704288111E-15   0.00000000000000E+00   0.00000000000000E+00   0.00000000000000E+00   0.00000000000000E+00
     -2.29526085544939E-17  -4.53138377424376E-16  -4.76090985978870E-16  -1.92512165195258E-15
      0.00000000000000E+00
      8.00000000000000E-01   8.00000000000000E-01   0.00000000000000E+00   0.00000000000000E+00   5.42918530354441E-16
     -1.68054705304484E-19   5.42750475649137E-16   3.63017869483369E-15   0.00000000000000E+00   0.00000000000000E+00
      0.00000000000000E+00   0.00000000000000E+00  -1.03632184774757E-18  -6.68495232700159E-17  -6.78858451177635E-17
     -1.70505704288112E-15   0.00000000000000E+00   0.00000000000000E+00   0.00000000000000E+00   0.00000000000000E+00
     -2.29526085544939E-17  -4.51912021976879E-16  -4.74864630531373E-16  -1.92512165195258E-15
      1.00000000000000E-02
      8.00000000000000E-01   8.00000000000000E-01   0.00000000000000E+00   0.00000000000000E+00   6.97592251153550E-16
     -2.87992197826299E-18   6.94712329175287E-16   3.63477313123065E-15   0.00000000000000E+00   0.00000000000000E+00
      0.00000000000000E+00   0.00000000000000E+00  -1.03632184151754E-18  -6.62169479114215E-17  -6.72532697529390E-17
     -1.70503546381153E-15  -5.00000000000000E-01  -5.00000000000000E-01   0.00000000000000E+00   0.00000000000000E+00
     -2.29527595307662E-17  -6.04506299891583E-16  -6.27459059422349E-16  -1.92973766741912E-15
      2.00000000000000E-02
      8.00000000000000E-01   8.00000000000000E-01   0.00000000000000E+00   0.00000000000000E+00   8.26209118007935E-16
     -1.77915201201913E-18   8.24429965995916E-16   3.63927234248627E-15   0.00000000000000E+00   0.00000000000000E+00
      0.00000000000000E+00   0.00000000000000E+00  -1.03632181325911E-18  -6.57677607128340E-17  -6.68040825260931E-17
     -1.70493761621796E-15  -1.00000000000000E+00  -1.00000000000000E+00   0.00000000000000E+00   0.00000000000000E+00
     -2.29529113328205E-17  -7.34672972137002E-16  -7.57625883469822E-16  -1.93433472626831E-15
      3.00000000000000E-02
      8.00000000000000E-01   8.00000000000000E-01   0.00000000000000E+00   0.00000000000000E+00   9.37588036074449E-16
      6.76811208504208E-19   9.38264847282954E-16   3.64349679156370E-15   0.00000000000000E+00   0.00000000000000E+00
      0.00000000000000E+00   0.00000000000000E+00  -1.03632170845978E-18  -6.55084003828675E-17  -6.65447220913273E-17
     -1.70457492839588E-15  -1.50000000000000E+00  -1.50000000000000E+00   0.00000000000000E+00   0.00000000000000E+00
     -2.29530628143295E-17  -8.48767062377296E-16  -8.71720125191626E-16  -1.93892186316782E-15
      4.00000000000000E-02
      8.00000000000000E-01   8.00000000000000E-01   0.00000000000000E+00   0.00000000000000E+00   1.03119099701714E-15
      9.46998143981962E-19   1.03213799516112E-15   3.64701498048657E-15   0.00000000000000E+00   0.00000000000000E+00
      0.00000000000000E+00   0.00000000000000E+00  -1.03632139117961E-18  -6.55220398330729E-17  -6.65583612242525E-17
     -1.70347685055182E-15  -2.00000000000000E+00  -2.00000000000000E+00   0.00000000000000E+00   0.00000000000000E+00
     -2.29532156096302E-17  -9.42626418327235E-16  -9.65579633936866E-16  -1.94353812993475E-15
      5.00000000000000E-02
      8.00000000000000E-01   8.00000000000000E-01   0.00000000000000E+00   0.00000000000000E+00   1.10774105018766E-15
     -4.09068733606839E-18   1.10365036285159E-15   3.64898909783472E-15   0.00000000000000E+00   0.00000000000000E+00
      0.00000000000000E+00   0.00000000000000E+00  -1.03632060709481E-18  -6.59919487617519E-17  -6.70282693688467E-17
     -1.70075330932708E-15  -2.50000000000000E+00  -2.50000000000000E+00   0.00000000000000E+00   0.00000000000000E+00
     -2.29533714073227E-17  -1.01366872207542E-15  -1.03662209348275E-15  -1.94823578850764E-15
      6.00000000000000E-02
      8.00000000000000E-01   8.00000000000000E-01   0.00000000000000E+00   0.00000000000000E+00   1.17118365352109E-15
     -3.16996183931541E-20   1.17115195390269E-15   3.64833004182834E-15   0.00000000000000E+00   0.00000000000000E+00
      0.00000000000000E+00   0.00000000000000E+00  -1.03631905074676E-18  -6.72378163315106E-17  -6.82741353822573E-17
     -1.69527287991029E-15  -3.00000000000000E+00  -3.00000000000000E+00   0.00000000000000E+00   0.00000000000000E+00
     -2.29535315931841E-17  -1.07992428692725E-15  -1.10287781852044E-15  -1.95305716191805E-15
      7.00000000000000E-02
      8.00000000000000E-01   8.00000000000000E-01   0.00000000000000E+00   0.00000000000000E+00   1.22290562987490E-15
     -8.67404696651430E-18   1.21423158290838E-15   3.64450665168036E-15   0.00000000000000E+00   0.00000000000000E+00
      0.00000000000000E+00   0.00000000000000E+00  -1.03631662290791E-18  -6.96645404312293E-17  -7.07008570541372E-17
     -1.68646743145726E-15  -3.50000000000000E+00  -3.50000000000000E+00   0.00000000000000E+00   0.00000000000000E+00
     -2.29536973917238E-17  -1.12057702846252E-15  -1.14353072585425E-15  -1.95803922022310E-15
      8.00000000000000E-02
      8.00000000000000E-01   8.00000000000000E-01   0.00000000000000E+00   0.00000000000000E+00   1.26326534073088E-15
     -5.34045684788917E-18   1.25792488388299E-15   3.63807673908677E-15   0.00000000000000E+00   0.00000000000000E+00
      0.00000000000000E+00   0.00000000000000E+00  -1.03631354966268E-18  -7.34368297012690E-17  -7.44731432509317E-17
     -1.67485961894660E-15  -4.00000000000000E+00  -4.00000000000000E+00   0.00000000000000E+00   0.00000000000000E+00
     -2.29538699789576E-17  -1.16049787065310E-15  -1.18345174063206E-15  -1.96321712014017E-15
      9.00000000000000E-02
      8.00000000000000E-01   8.00000000000000E-01   0.00000000000000E+00   0.00000000000000E+00   1.29346059094324E-15
     -1.00861664864913E-18   1.29245197429459E-15   3.62993673097993E-15   0.00000000000000E+00   0.00000000000000E+00
      0.00000000000000E+00   0.00000000000000E+00  -1.03631011029290E-18  -7.77779621337504E-17  -7.88142722440433E-17
     -1.66132042474360E-15  -4.50000000000000E+00  -4.50000000000000E+00   0.00000000000000E+00   0.00000000000000E+00
     -2.29540502161398E-17  -1.19068365183441E-15  -1.21363770205055E-15  -1.96861630623632E-15
      1.00000000000000E-01
      8.00000000000000E-01   8.00000000000000E-01   0.00000000000000E+00   0.00000000000000E+00   1.31417641819648E-15
      5.02675806389448E-18   1.31920317626037E-15   3.62067442759785E-15   0.00000000000000E+00   0.00000000000000E+00
      0.00000000000000E+00   0.00000000000000E+00  -1.03630646360962E-18  -8.09808654784863E-17  -8.20171719420959E-17
     -1.64642540873574E-15  -5.00000000000000E+00  -5.00000000000000E+00   0.00000000000000E+00   0.00000000000000E+00
     -2.29542385295502E-17  -1.21423176578872E-15  -1.23718600431827E-15  -1.97424901886211E-15
      1.10000000000000E-01
      8.00000000000000E-01   8.00000000000000E-01   0.00000000000000E+00   0.00000000000000E+00   1.32752800530816E-15
     -1.27276964984096E-19   1.32740072834318E-15   3.61058518357952E-15   0.00000000000000E+00   0.00000000000000E+00
      0.00000000000000E+00   0.00000000000000E+00  -1.03630268072766E-18  -8.24011053990716E-17  -8.34374080797993E-17
     -1.63046594158330E-15  -5.50000000000000E+00  -5.50000000000000E+00   0.00000000000000E+00   0.00000000000000E+00
     -2.29544350726052E-17  -1.22100888519078E-15  -1.24396332026338E-15  -1.98011924199623E-15
      1.20000000000000E-01
      8.00000000000000E-01   8.00000000000000E-01   0.00000000000000E+00   0.00000000000000E+00   1.33647900485473E-15
      4.87422768898811E-19   1.33696642762363E-15   3.59980610648742E-15   0.00000000000000E+00   0.00000000000000E+00
      0.00000000000000E+00   0.00000000000000E+00  -1.03629879360298E-18  -8.26396722368666E-17  -8.36759710304696E-17
     -1.61357913015152E-15  -6.00000000000000E+00  -6.00000000000000E+00   0.00000000000000E+00   0.00000000000000E+00
     -2.29546398670460E-17  -1.23033581672612E-15  -1.25329045659316E-15  -1.98622697633590E-15
      1.30000000000000E-01
      8.00000000000000E-01   8.00000000000000E-01   0.00000000000000E+00   0.00000000000000E+00   1.34304541262215E-15
     -1.13351062539969E-17   1.33171030636815E-15   3.58838789709243E-15   0.00000000000000E+00   0.00000000000000E+00
      0.00000000000000E+00   0.00000000000000E+00  -1.03629481735024E-18  -8.22671712765580E-17  -8.33034660939083E-17
     -1.59581768661865E-15  -6.50000000000000E+00  -6.50000000000000E+00   0.00000000000000E+00   0.00000000000000E+00
     -2.29548528681202E-17  -1.22545198740612E-15  -1.24840684027424E-15  -1.99257021047378E-15
      1.40000000000000E-01
      8.00000000000000E-01   8.00000000000000E-01   0.00000000000000E+00   0.00000000000000E+00   1.34826008511276E-15
      4.86403988921459E-18   1.35312412500198E-15   3.57632125392013E-15   0.00000000000000E+00   0.00000000000000E+00
      0.00000000000000E+00   0.00000000000000E+00  -1.03629075856343E-18  -8.15743643623375E-17  -8.26106551209009E-17
     -1.57717560804626E-15  -7.00000000000000E+00  -7.00000000000000E+00   0.00000000000000E+00   0.00000000000000E+00
     -2.29550739884250E-17  -1.24755839589265E-15  -1.27051346988108E-15  -1.99914564587388E-15
      1.50000000000000E-01
      8.00000000000000E-01   8.00000000000000E-01   0.00000000000000E+00   0.00000000000000E+00   1.35262759308178E-15
     -5.50757302501896E-18   1.34712002005676E-15   3.56354210944623E-15   0.00000000000000E+00   0.00000000000000E+00
      0.00000000000000E+00   0.00000000000000E+00  -1.03628661831922E-18  -8.06906027004485E-17  -8.17268893187678E-17
     -1.55759322346447E-15  -7.50000000000000E+00  -7.50000000000000E+00   0.00000000000000E+00   0.00000000000000E+00
     -2.29553031039260E-17  -1.24243782763407E-15  -1.26539313073800E-15  -2.00594888598175E-15
      1.60000000000000E-01
      8.00000000000000E-01   8.00000000000000E-01   0.00000000000000E+00   0.00000000000000E+00   1.35641488215097E-15
      6.46733644105309E-18   1.36288221859202E-15   3.54993579153968E-15   0.00000000000000E+00   0.00000000000000E+00
      0.00000000000000E+00   0.00000000000000E+00  -1.03628239393170E-18  -7.96815145021077E-17  -8.07177968960394E-17
     -1.53696118701325E-15  -8.00000000000000E+00  -8.00000000000000E+00   0.00000000000000E+00   0.00000000000000E+00
     -2.29555400593162E-17  -1.25920888163667E-15  -1.28216442169598E-15  -2.01297460452644E-15
      1.70000000000000E-01
      8.00000000000000E-01   8.00000000000000E-01   0.00000000000000E+00   0.00000000000000E+00   1.35976787822209E-15
      8.68819616114655E-18   1.36845607438324E-15   3.53538116245568E-15   0.00000000000000E+00   0.00000000000000E+00
      0.00000000000000E+00   0.00000000000000E+00  -1.03627808318350E-18  -7.85641354319352E-17  -7.96004135151187E-17
     -1.51516349857209E-15  -8.50000000000000E+00  -8.50000000000000E+00   0.00000000000000E+00   0.00000000000000E+00
     -2.29557847055395E-17  -1.26589987616258E-15  -1.28885566086812E-15  -2.02021766388359E-15
      1.80000000000000E-01
      8.00000000000000E-01   8.00000000000000E-01   0.00000000000000E+00   0.00000000000000E+00   1.36276359197687E-15
      5.62466189426536E-19   1.36332605816630E-15   3.51988863907667E-15   0.00000000000000E+00   0.00000000000000E+00
      0.00000000000000E+00   0.00000000000000E+00  -1.03627369430119E-18  -7.72957512544903E-17  -7.83320249487914E-17
     -1.49221225841967E-15  -9.00000000000000E+00  -9.00000000000000E+00   0.00000000000000E+00   0.00000000000000E+00
     -2.29560370103396E-17  -1.26203799620716E-15  -1.28499403321750E-15  -2.02767638065699E-15
      1.90000000000000E-01
      8.00000000000000E-01   8.00000000000000E-01   0.00000000000000E+00   0.00000000000000E+00   1.36542592466373E-15
     -5.40642399862415E-18   1.36001950066510E-15   3.50372329778638E-15   0.00000000000000E+00   0.00000000000000E+00
      0.00000000000000E+00   0.00000000000000E+00  -1.03626925272846E-18  -7.56133040245804E-17  -7.66495732773089E-17
     -1.46836800935605E-15  -9.50000000000000E+00  -9.50000000000000E+00   0.00000000000000E+00   0.00000000000000E+00
     -2.29562971527550E-17  -1.26041363023504E-15  -1.28336992738779E-15  -2.03535528843034E-15
      2.00000000000000E-01
      8.00000000000000E-01   8.00000000000000E-01   0.00000000000000E+00   0.00000000000000E+00   1.36772953010285E-15
     -7.65787869143679E-21   1.36772187222416E-15   3.48726460635005E-15   0.00000000000000E+00   0.00000000000000E+00
      0.00000000000000E+00   0.00000000000000E+00  -1.03626478886555E-18  -7.24932475517932E-17  -7.35295123406588E-17
     -1.44400289143634E-15  -1.00000000000000E+01  -1.00000000000000E+01   0.00000000000000E+00   0.00000000000000E+00
     -2.29565654084740E-17  -1.27123579447503E-15  -1.29419235988350E-15  -2.04326171491370E-15
      2.10000000000000E-01
      8.00000000000000E-01   8.00000000000000E-01   0.00000000000000E+00   0.00000000000000E+00   1.36965576615284E-15
      2.23126529525607E-17   1.39196841910540E-15   3.47078501240692E-15   0.00000000000000E+00   0.00000000000000E+00
      0.00000000000000E+00   0.00000000000000E+00  -1.03626032291201E-18  -6.41659121177122E-17  -6.52021724406242E-17
     -1.41938440981024E-15  -1.05000000000000E+01  -1.05000000000000E+01   0.00000000000000E+00   0.00000000000000E+00
     -2.29568419744493E-17  -1.30380940469033E-15  -1.32676624666478E-15  -2.05140060259668E-15
      2.20000000000000E-01
      8.00000000000000E-01   8.00000000000000E-01   0.00000000000000E+00   0.00000000000000E+00   1.37119613258255E-15
     -8.60142268767725E-19   1.37033599031378E-15   3.45441913986299E-15   0.00000000000000E+00   0.00000000000000E+00
      0.00000000000000E+00   0.00000000000000E+00  -1.03625584904361E-18  -3.70360219463251E-17  -3.80722777953687E-17
     -1.39464534165273E-15  -1.10000000000000E+01  -1.10000000000000E+01   0.00000000000000E+00   0.00000000000000E+00
     -2.29571269441081E-17  -1.30930658557430E-15  -1.33226371251841E-15  -2.05977379821026E-15
      2.30000000000000E-01
      8.00000000000000E-01   8.00000000000000E-01   0.00000000000000E+00   0.00000000000000E+00   1.37234482400456E-15
      9.58624790822497E-19   1.37330344879539E-15   3.43822394015270E-15   0.00000000000000E+00   0.00000000000000E+00
      0.00000000000000E+00   0.00000000000000E+00  -1.03625140428692E-18   5.65450631312915E-17   5.55088117270046E-17
     -1.36984252135073E-15  -1.15000000000000E+01  -1.15000000000000E+01   0.00000000000000E+00   0.00000000000000E+00
     -2.29574203531594E-17  -1.40585484016923E-15  -1.42881226052239E-15  -2.06838141880197E-15
      2.40000000000000E-01
      8.00000000000000E-01   8.00000000000000E-01   0.00000000000000E+00   0.00000000000000E+00   1.37311374517916E-15
      8.51695917567770E-19   1.37396544109673E-15   3.42222301966907E-15   0.00000000000000E+00   0.00000000000000E+00
      0.00000000000000E+00   0.00000000000000E+00  -1.03624697389464E-18   3.77877127072711E-16   3.76840880098816E-16
     -1.34500017676424E-15  -1.20000000000000E+01  -1.20000000000000E+01   0.00000000000000E+00   0.00000000000000E+00
     -2.29577222130074E-17  -1.72784859898254E-15  -1.75080632119554E-15  -2.07722284290483E-15
      2.50000000000000E-01
      8.00000000000000E-01   8.00000000000000E-01   0.00000000000000E+00   0.00000000000000E+00   1.37354962874583E-15
     -8.12834744928726E-18   1.36542128129654E-15   3.40642685644029E-15   0.00000000000000E+00   0.00000000000000E+00
      0.00000000000000E+00   0.00000000000000E+00  -1.03624254050529E-18   1.45374909840019E-15   1.45271285585969E-15
     -1.32012970462488E-15  -1.25000000000000E+01  -1.25000000000000E+01   0.00000000000000E+00   0.00000000000000E+00
     -2.29580325256436E-17  -2.79517610463058E-15  -2.81813413715623E-15  -2.08629715181540E-15
      2.60000000000000E-01
      8.00000000000000E-01   8.00000000000000E-01   0.00000000000000E+00   0.00000000000000E+00   1.37372189515038E-15
     -6.50118493596041E-18   1.36722071021442E-15   3.39084096996250E-15   0.00000000000000E+00   0.00000000000000E+00
      0.00000000000000E+00   0.00000000000000E+00  -1.03623812440187E-18   4.94353425430879E-15   4.94249801618439E-15
     -1.29523766950391E-15  -1.30000000000000E+01  -1.30000000000000E+01   0.00000000000000E+00   0.00000000000000E+00
     -2.29583512894244E-17  -6.28676037510939E-15  -6.30971872639882E-15  -2.09560330045859E-15
      2.70000000000000E-01
      8.00000000000000E-01   8.00000000000000E-01   0.00000000000000E+00   0.00000000000000E+00   1.37369128534955E-15
      1.74361713680319E-17   1.39112745671758E-15   3.37546929234512E-15   0.00000000000000E+00   0.00000000000000E+00
      0.00000000000000E+00   0.00000000000000E+00  -1.03623373782219E-18   1.58849341540606E-14   1.58838979203228E-14
     -1.27032910941482E-15  -1.35000000000000E+01  -1.35000000000000E+01   0.00000000000000E+00   0.00000000000000E+00
     -2.29586785012800E-17  -1.72520666985390E-14  -1.72750253770403E-14  -2.10514018293028E-15
      2.80000000000000E-01
      8.00000000000000E-01   8.00000000000000E-01   0.00000000000000E+00   0.00000000000000E+00   1.37348603806911E-15
     -2.84903749067575E-17   1.34499566316235E-15   3.36031576358338E-15   0.00000000000000E+00   0.00000000000000E+00
      0.00000000000000E+00   0.00000000000000E+00  -1.03622934905837E-18   4.90079819323961E-14   4.90069457030470E-14
     -1.24540910200695E-15  -1.40000000000000E+01  -1.40000000000000E+01   0.00000000000000E+00   0.00000000000000E+00
     -2.29590141576878E-17  -5.03289823520519E-14  -5.03519413662096E-14  -2.11490666157644E-15
      2.90000000000000E-01
      8.00000000000000E-01   8.00000000000000E-01   0.00000000000000E+00   0.00000000000000E+00   1.37308456507021E-15
      6.60740435187217E-18   1.37969196942209E-15   3.34538533082604E-15   0.00000000000000E+00   0.00000000000000E+00
      0.00000000000000E+00   0.00000000000000E+00  -1.03622492418456E-18   1.45762281160155E-13   1.45761244935231E-13
     -1.22048374212533E-15  -1.45000000000000E+01  -1.45000000000000E+01   0.00000000000000E+00   0.00000000000000E+00
     -2.29593582554136E-17  -1.47117977546398E-13  -1.47140936904653E-13  -2.12490158870070E-15
      3.00000000000000E-01
      8.00000000000000E-01   8.00000000000000E-01   0.00000000000000E+00   0.00000000000000E+00   1.37238455718127E-15
      1.14294671660153E-17   1.38381402434728E-15   3.33068484802657E-15   0.00000000000000E+00   0.00000000000000E+00
      0.00000000000000E+00   0.00000000000000E+00  -1.03622001382418E-18   4.18294820879173E-13   4.18293784659159E-13
     -1.19556100853666E-15  -1.50000000000000E+01  -1.50000000000000E+01   0.00000000000000E+00   0.00000000000000E+00
     -2.29597107926356E-17  -4.19654638972715E-13  -4.19677598683508E-13  -2.13512383948990E-15
      3.10000000000000E-01
      8.00000000000000E-01   8.00000000000000E-01   0.00000000000000E+00   0.00000000000000E+00   1.37113042239235E-15
     -4.78251672350429E-17   1.32330525515731E-15   3.31622415353203E-15   0.00000000000000E+00   0.00000000000000E+00
      0.00000000000000E+00   0.00000000000000E+00  -1.03621502952046E-18   1.15802883300334E-12   1.15802779678832E-12
     -1.17065177273864E-15  -1.55000000000000E+01  -1.55000000000000E+01   0.00000000000000E+00   0.00000000000000E+00
     -2.29600717713487E-17  -1.15932814197170E-12  -1.15935110204347E-12  -2.14557238079339E-15
      3.20000000000000E-01
      8.00000000000000E-01   8.00000000000000E-01   0.00000000000000E+00   0.00000000000000E+00   1.36874929103768E-15
     -1.03224714342351E-17   1.35842681960345E-15   3.30201758447854E-15   0.00000000000000E+00   0.00000000000000E+00
      0.00000000000000E+00   0.00000000000000E+00  -1.03621011024787E-18   3.09127911195340E-12   3.09127807574329E-12
     -1.14577116157975E-15  -1.60000000000000E+01  -1.60000000000000E+01   0.00000000000000E+00   0.00000000000000E+00
     -2.29604412026756E-17  -3.09261354212169E-12  -3.09263650256289E-12  -2.15624642289880E-15
      3.30000000000000E-01
      8.00000000000000E-01   8.00000000000000E-01   0.00000000000000E+00   0.00000000000000E+00   1.36401011678499E-15
      1.62165441954203E-17   1.38022666098041E-15   3.28808628592431E-15   0.00000000000000E+00   0.00000000000000E+00
      0.00000000000000E+00   0.00000000000000E+00  -1.03620190116179E-18   7.95102311917403E-12   7.95102208297213E-12
     -1.12094053779995E-15  -1.65000000000000E+01  -1.65000000000000E+01   0.00000000000000E+00   0.00000000000000E+00
     -2.29608191184258E-17  -7.95237934881398E-12  -7.95240230963309E-12  -2.16714574812437E-15
      3.40000000000000E-01
      8.00000000000000E-01   8.00000000000000E-01   0.00000000000000E+00   0.00000000000000E+00   1.35439950926118E-15
     -1.69860070055234E-17   1.33741350225566E-15   3.27446186483879E-15   0.00000000000000E+00   0.00000000000000E+00
      0.00000000000000E+00   0.00000000000000E+00  -1.03618601074467E-18   1.96857011724046E-11   1.96857001362186E-11
     -1.09619047273129E-15  -1.70000000000000E+01  -1.70000000000000E+01   0.00000000000000E+00   0.00000000000000E+00
     -2.29612055951498E-17  -1.96870145885151E-11  -1.96870375497207E-11  -2.17827139210750E-15
      3.50000000000000E-01
      8.00000000000000E-01   8.00000000000000E-01   0.00000000000000E+00   0.00000000000000E+00   1.33521557812285E-15
      3.11768064537782E-18   1.33833325876823E-15   3.26119217714976E-15   0.00000000000000E+00   0.00000000000000E+00
      0.00000000000000E+00   0.00000000000000E+00  -1.03615164779644E-18   4.68543781387262E-11   4.68543771025746E-11
     -1.07156520099158E-15  -1.75000000000000E+01  -1.75000000000000E+01   0.00000000000000E+00   0.00000000000000E+00
     -2.29616008013258E-17  -4.68556924742329E-11  -4.68557154358337E-11  -2.18962697615818E-15
      3.60000000000000E-01
      8.00000000000000E-01   8.00000000000000E-01   0.00000000000000E+00   0.00000000000000E+00   1.29893578474648E-15
      2.04283843033474E-17   1.31936416904983E-15   3.24835014361404E-15   0.00000000000000E+00   0.00000000000000E+00