DF-ISE text

Info {
  version   = 1.0
  type      = xyplot
  datasets  = [
    "time"
    "Ntop OuterVoltage" "Ntop InnerVoltage" "Ntop QuasiFermiPotential" "Ntop DisplacementCurrent" "Ntop eCurrent"
    "Ntop hCurrent" "Ntop TotalCurrent" "Ntop Charge" "Ptop OuterVoltage" "Ptop InnerVoltage"
    "Ptop QuasiFermiPotential" "Ptop DisplacementCurrent" "Ptop eCurrent" "Ptop hCurrent" "Ptop TotalCurrent"
    "Ptop Charge" "Pbot OuterVoltage" "Pbot InnerVoltage" "Pbot QuasiFermiPotential" "Pbot DisplacementCurrent"
    "Pbot eCurrent" "Pbot hCurrent" "Pbot TotalCurrent" "Pbot Charge" ]
  functions = [
    Time
    OuterVoltage InnerVoltage QuasiFermiPotential DisplacementCurrent eCurrent
    hCurrent TotalCurrent Charge OuterVoltage InnerVoltage
    QuasiFermiPotential DisplacementCurrent eCurrent hCurrent TotalCurrent
    Charge OuterVoltage InnerVoltage QuasiFermiPotential DisplacementCurrent
    eCurrent hCurrent TotalCurrent Charge ]
}

Data {
      0.00000000000000E+00
      0.00000000000000E+00   0.00000000000000E+00   0.00000000000000E+00   0.00000000000000E+00  -1.54192771075334E-26
     -4.30864516366663E-18  -4.30864517908591E-18   2.90715628935978E-15   0.00000000000000E+00   0.00000000000000E+00
      0.00000000000000E+00   0.00000000000000E+00   1.54336349057254E-26  -5.89014300497803E-20  -5.89014146161454E-20
     -9.89453108333939E-16   0.00000000000000E+00   0.00000000000000E+00   0.00000000000000E+00   0.00000000000000E+00
     -1.43703321366242E-29   4.36754659371642E-18   4.36754659370205E-18  -1.91770318102584E-15
      0.00000000000000E+00
      0.00000000000000E+00   0.00000000000000E+00   0.00000000000000E+00   0.00000000000000E+00  -7.66557778854903E-28
     -7.48578141061178E-19  -7.48578141827736E-19   2.90715628946316E-15   0.00000000000000E+00   0.00000000000000E+00
      0.00000000000000E+00   0.00000000000000E+00   7.57905952706896E-28   6.31487342470932E-21   6.31487418261528E-21
     -9.89453108333948E-16   0.00000000000000E+00   0.00000000000000E+00   0.00000000000000E+00   0.00000000000000E+00
      9.18695630698690E-30   7.42263267635934E-19   7.42263267645121E-19  -1.91770318112922E-15
      1.00000000000000E-01
      8.00000000000000E-02   8.00000000000000E-02   0.00000000000000E+00   0.00000000000000E+00   1.49096663042432E-16
      4.90631866433176E-19   1.49587294908865E-16   2.97524092747260E-15   0.00000000000000E+00   0.00000000000000E+00
      0.00000000000000E+00   0.00000000000000E+00  -9.93420340624715E-19  -1.30155931344586E-17  -1.40090134750833E-17
     -1.05679494896266E-15   0.00000000000000E+00   0.00000000000000E+00   0.00000000000000E+00   0.00000000000000E+00
     -2.28396109804883E-17  -1.12738670453294E-16  -1.35578281433782E-16  -1.91844597850994E-15
      2.00000000000000E-01
      1.60000000000000E-01   1.60000000000000E-01   0.00000000000000E+00   0.00000000000000E+00   2.14010253792615E-16
     -3.69396237582546E-19   2.13640857555033E-16   3.04009387652083E-15   0.00000000000000E+00   0.00000000000000E+00
      0.00000000000000E+00   0.00000000000000E+00  -1.03467268157523E-18  -2.02015008493386E-17  -2.12361735309138E-17
     -1.12090541019477E-15   0.00000000000000E+00   0.00000000000000E+00   0.00000000000000E+00   0.00000000000000E+00
     -2.29524633397521E-17  -1.69452220684367E-16  -1.92404684024119E-16  -1.91918846632606E-15
      3.00000000000000E-01
      2.40000000000000E-01   2.40000000000000E-01   0.00000000000000E+00   0.00000000000000E+00   2.66628202752587E-16
      3.43527240016093E-19   2.66971729992603E-16   3.10230367020054E-15   0.00000000000000E+00   0.00000000000000E+00
      0.00000000000000E+00   0.00000000000000E+00  -1.03622066450631E-18  -2.63591906337373E-17  -2.73954112982436E-17
     -1.18237279701274E-15   0.00000000000000E+00   0.00000000000000E+00   0.00000000000000E+00   0.00000000000000E+00
     -2.29524423937217E-17  -2.16623876300638E-16  -2.39576318694359E-16  -1.91993087318780E-15
      4.00000000000000E-01
      3.20000000000000E-01   3.20000000000000E-01   0.00000000000000E+00   0.00000000000000E+00   3.13222681193575E-16
      1.04207290545206E-18   3.14264754099027E-16   3.16227503808336E-15   0.00000000000000E+00   0.00000000000000E+00
      0.00000000000000E+00   0.00000000000000E+00  -1.03627551163461E-18  -3.20313622473961E-17  -3.30676377590307E-17
     -1.24160182258291E-15   0.00000000000000E+00   0.00000000000000E+00   0.00000000000000E+00   0.00000000000000E+00
     -2.29524636556150E-17  -2.58244652684381E-16  -2.81197116339996E-16  -1.92067321550046E-15
      5.00000000000000E-01
      4.00000000000000E-01   4.00000000000000E-01   0.00000000000000E+00   0.00000000000000E+00   3.55891178234373E-16
     -1.48567334439668E-18   3.54405504889977E-16   3.22028183897224E-15   0.00000000000000E+00   0.00000000000000E+00
      0.00000000000000E+00   0.00000000000000E+00  -1.03628526455403E-18  -3.72962245276422E-17  -3.83325097921962E-17
     -1.29886641052880E-15   0.00000000000000E+00   0.00000000000000E+00   0.00000000000000E+00   0.00000000000000E+00
     -2.29524876671324E-17  -2.93120507430648E-16  -3.16072995097781E-16  -1.92141542844343E-15
      6.00000000000000E-01
      4.80000000000000E-01   4.80000000000000E-01   0.00000000000000E+00   0.00000000000000E+00   3.95833012402335E-16
     -3.03403154625663E-19   3.95529609247709E-16   3.27649515444285E-15   0.00000000000000E+00   0.00000000000000E+00
      0.00000000000000E+00   0.00000000000000E+00  -1.03629387562680E-18  -4.22966033634902E-17  -4.33328972391170E-17
     -1.35433772910946E-15   0.00000000000000E+00   0.00000000000000E+00   0.00000000000000E+00   0.00000000000000E+00
     -2.29525117994972E-17  -3.29244200209095E-16  -3.52196712008592E-16  -1.92215742533340E-15
      7.00000000000000E-01
      5.60000000000000E-01   5.60000000000000E-01   0.00000000000000E+00   0.00000000000000E+00   4.33712025963503E-16
     -1.15245762965452E-19   4.33596780200537E-16   3.33099613654728E-15   0.00000000000000E+00   0.00000000000000E+00
      0.00000000000000E+00   0.00000000000000E+00  -1.03630196581829E-18  -4.71338079329785E-17  -4.81701098987968E-17
     -1.40809701430990E-15   0.00000000000000E+00   0.00000000000000E+00   0.00000000000000E+00   0.00000000000000E+00
     -2.29525359630563E-17  -3.62474134338684E-16  -3.85426670301740E-16  -1.92289912223738E-15
      8.00000000000000E-01
      6.40000000000000E-01   6.40000000000000E-01   0.00000000000000E+00   0.00000000000000E+00   4.69850203186676E-16
      9.62929685453084E-19   4.70813132872129E-16   3.38378091683606E-15   0.00000000000000E+00   0.00000000000000E+00
      0.00000000000000E+00   0.00000000000000E+00  -1.03630971231966E-18  -5.19162570395403E-17  -5.29525667518600E-17
     -1.46014047103719E-15   0.00000000000000E+00   0.00000000000000E+00   0.00000000000000E+00   0.00000000000000E+00
     -2.29525601476261E-17  -3.94908005972644E-16  -4.17860566120270E-16  -1.92364044579886E-15
      9.00000000000000E-01
      7.20000000000000E-01   7.20000000000000E-01   0.00000000000000E+00   0.00000000000000E+00   5.04507577157662E-16
      4.97417096892403E-19   5.05004994254555E-16   3.43476917345955E-15   0.00000000000000E+00   0.00000000000000E+00
      0.00000000000000E+00   0.00000000000000E+00  -1.03631693624553E-18  -5.67185916773282E-17  -5.77549086135737E-17
     -1.51038784150030E-15   0.00000000000000E+00   0.00000000000000E+00   0.00000000000000E+00   0.00000000000000E+00
     -2.29525843471995E-17  -4.24297501293782E-16  -4.47250085640982E-16  -1.92438133195924E-15
      1.00000000000000E+00
      8.00000000000000E-01   8.00000000000000E-01   0.00000000000000E+00   0.00000000000000E+00   5.37969771770644E-16
      5.28603804899544E-19   5.38498375575543E-16   3.48384007880480E-15   0.00000000000000E+00   0.00000000000000E+00
      0.00000000000000E+00   0.00000000000000E+00  -1.03632349998912E-18  -6.17045622258886E-17  -6.27408857258777E-17
     -1.55871836156759E-15   0.00000000000000E+00   0.00000000000000E+00   0.00000000000000E+00   0.00000000000000E+00
     -2.29526085566299E-17  -4.52804881293036E-16  -4.75757489849666E-16  -1.92512171723721E-15
      0.00000000000000E+00
      8.00000000000000E-01   8.00000000000000E-01   0.00000000000000E+00   0.00000000000000E+00   5.37969771844278E-16
      3.71138834056121E-19   5.38340910678334E-16   3.48384007880480E-15   0.00000000000000E+00   0.00000000000000E+00
      0.00000000000000E+00   0.00000000000000E+00  -1.03632357362714E-18  -6.16869367002809E-17  -6.27232602739080E-17
     -1.55871836156759E-15   0.00000000000000E+00   0.00000000000000E+00   0.00000000000000E+00   0.00000000000000E+00
     -2.29526085566297E-17  -4.52665041847797E-16  -4.75617650404426E-16  -1.92512171723721E-15
      1.00000000000000E-02
      8.00000000000000E-01   8.00000000000000E-01   0.00000000000000E+00   0.00000000000000E+00   6.92601050684846E-16
     -4.22662853492930E-18   6.88374422149917E-16   3.48844176116048E-15   0.00000000000000E+00   0.00000000000000E+00
      0.00000000000000E+00   0.00000000000000E+00  -1.03632356862706E-18  -6.11269492290246E-17  -6.21632727976517E-17
     -1.55870368085700E-15  -5.00000000000000E-01  -5.00000000000000E-01   0.00000000000000E+00   0.00000000000000E+00
     -2.29527595443417E-17  -6.03258389807923E-16  -6.26211149352264E-16  -1.92973808030349E-15
      2.00000000000000E-02
      8.00000000000000E-01   8.00000000000000E-01   0.00000000000000E+00   0.00000000000000E+00   8.21032328384941E-16
     -2.61300070604677E-19   8.20771028314337E-16   3.49297403607665E-15   0.00000000000000E+00   0.00000000000000E+00
      0.00000000000000E+00   0.00000000000000E+00  -1.03632354603155E-18  -6.06995602996393E-17  -6.17358838456708E-17
     -1.55863734908185E-15  -1.00000000000000E+00  -1.00000000000000E+00   0.00000000000000E+00   0.00000000000000E+00
     -2.29529113974857E-17  -7.36082233071180E-16  -7.59035144468666E-16  -1.93433668699479E-15
      3.00000000000000E-02
      8.00000000000000E-01   8.00000000000000E-01   0.00000000000000E+00   0.00000000000000E+00   9.31790915326680E-16
     -7.78836121045628E-19   9.31012079205635E-16   3.49732313665721E-15   0.00000000000000E+00   0.00000000000000E+00
      0.00000000000000E+00   0.00000000000000E+00  -1.03632346308655E-18  -6.04716599040251E-17  -6.15079833671117E-17
     -1.55839389556077E-15  -1.50000000000000E+00  -1.50000000000000E+00   0.00000000000000E+00   0.00000000000000E+00
     -2.29530630582702E-17  -8.46551032780253E-16  -8.69504095838523E-16  -1.93892924109644E-15
      4.00000000000000E-02
      8.00000000000000E-01   8.00000000000000E-01   0.00000000000000E+00   0.00000000000000E+00   1.02389767942967E-15
      1.58334571157126E-18   1.02548102514125E-15   3.50123189050302E-15   0.00000000000000E+00   0.00000000000000E+00
      0.00000000000000E+00   0.00000000000000E+00  -1.03632321712002E-18  -6.04035119022730E-17  -6.14398351193930E-17
     -1.55767163300243E-15  -2.00000000000000E+00  -2.00000000000000E+00   0.00000000000000E+00   0.00000000000000E+00
     -2.29532163427960E-17  -9.41087973679057E-16  -9.64041190021853E-16  -1.94356025750060E-15
      5.00000000000000E-02
      8.00000000000000E-01   8.00000000000000E-01   0.00000000000000E+00   0.00000000000000E+00   1.09745261266826E-15
     -2.23902083732031E-18   1.09521359183094E-15   3.50422007882466E-15   0.00000000000000E+00   0.00000000000000E+00
      0.00000000000000E+00   0.00000000000000E+00  -1.03632262578807E-18  -6.06639367449356E-17  -6.17002593707237E-17
     -1.55593005012462E-15  -2.50000000000000E+00  -2.50000000000000E+00   0.00000000000000E+00   0.00000000000000E+00
     -2.29533732078600E-17  -1.01055995925236E-15  -1.03351333246022E-15  -1.94829002870004E-15
      6.00000000000000E-02
      8.00000000000000E-01   8.00000000000000E-01   0.00000000000000E+00   0.00000000000000E+00   1.15639132145677E-15
      1.74917138616825E-18   1.15814049284293E-15   3.50565875081316E-15   0.00000000000000E+00   0.00000000000000E+00
      0.00000000000000E+00   0.00000000000000E+00  -1.03632146853900E-18  -6.13584905170125E-17  -6.23948119855515E-17
     -1.55249093509893E-15  -3.00000000000000E+00  -3.00000000000000E+00   0.00000000000000E+00   0.00000000000000E+00
     -2.29535352727176E-17  -1.07279214558466E-15  -1.09574568085738E-15  -1.95316781571423E-15
      7.00000000000000E-02
      8.00000000000000E-01   8.00000000000000E-01   0.00000000000000E+00   0.00000000000000E+00   1.20341466368173E-15
     -8.60199747826329E-19   1.20255446393391E-15   3.50511818491072E-15   0.00000000000000E+00   0.00000000000000E+00
      0.00000000000000E+00   0.00000000000000E+00  -1.03631961927378E-18  -6.26887412453542E-17  -6.37250608646280E-17
     -1.54688847594222E-15  -3.50000000000000E+00  -3.50000000000000E+00   0.00000000000000E+00   0.00000000000000E+00
     -2.29537037362361E-17  -1.11587569933304E-15  -1.13882940306928E-15  -1.95822970896850E-15
      8.00000000000000E-02
      8.00000000000000E-01   8.00000000000000E-01   0.00000000000000E+00   0.00000000000000E+00   1.24001015019643E-15
     -1.23557879095069E-19   1.23988659231733E-15   3.50270025818440E-15   0.00000000000000E+00   0.00000000000000E+00
      0.00000000000000E+00   0.00000000000000E+00  -1.03631715324816E-18  -6.48758778919673E-17  -6.59121950452155E-17
     -1.53919858375614E-15  -4.00000000000000E+00  -4.00000000000000E+00   0.00000000000000E+00   0.00000000000000E+00
     -2.29538794712074E-17  -1.15102051780091E-15  -1.17397439727212E-15  -1.96350167442826E-15
      9.00000000000000E-02
      8.00000000000000E-01   8.00000000000000E-01   0.00000000000000E+00   0.00000000000000E+00   1.26872508533905E-15
      7.32988717783597E-18   1.27605497251689E-15   3.49887662284497E-15   0.00000000000000E+00   0.00000000000000E+00
      0.00000000000000E+00   0.00000000000000E+00  -1.03631426031783E-18  -6.78353754130815E-17  -6.88716896733993E-17
     -1.52987426392414E-15  -4.50000000000000E+00  -4.50000000000000E+00   0.00000000000000E+00   0.00000000000000E+00
     -2.29540631137311E-17  -1.18422921972976E-15  -1.20718328284349E-15  -1.96900235892084E-15
      1.00000000000000E-01
      8.00000000000000E-01   8.00000000000000E-01   0.00000000000000E+00   0.00000000000000E+00   1.29072513361844E-15
      1.22145163194708E-18   1.29194658525039E-15   3.49409010627235E-15   0.00000000000000E+00   0.00000000000000E+00
      0.00000000000000E+00   0.00000000000000E+00  -1.03631109738449E-18  -7.09039069311715E-17  -7.19402180285560E-17
     -1.51934750514705E-15  -5.00000000000000E+00  -5.00000000000000E+00   0.00000000000000E+00   0.00000000000000E+00
     -2.29542550441908E-17  -1.19705211217764E-15  -1.22000636722183E-15  -1.97474260112531E-15
      1.10000000000000E-01
      8.00000000000000E-01   8.00000000000000E-01   0.00000000000000E+00   0.00000000000000E+00   1.30667401923626E-15
      1.32480322686636E-17   1.31992205150492E-15   3.48862270387947E-15   0.00000000000000E+00   0.00000000000000E+00
      0.00000000000000E+00   0.00000000000000E+00  -1.03630775481814E-18  -7.31364737378086E-17  -7.41727814926268E-17
     -1.50789568887858E-15  -5.50000000000000E+00  -5.50000000000000E+00   0.00000000000000E+00   0.00000000000000E+00
     -2.29544554379833E-17  -1.22279481457431E-15  -1.24574927001229E-15  -1.98072701500089E-15
      1.20000000000000E-01
      8.00000000000000E-01   8.00000000000000E-01   0.00000000000000E+00   0.00000000000000E+00   1.31796832656068E-15
     -2.10793361146706E-18   1.31586039294921E-15   3.48263812323144E-15   0.00000000000000E+00   0.00000000000000E+00
      0.00000000000000E+00   0.00000000000000E+00  -1.03630428061301E-18  -7.42922071876440E-17  -7.53285114682570E-17
     -1.49568149185745E-15  -6.00000000000000E+00  -6.00000000000000E+00   0.00000000000000E+00   0.00000000000000E+00
     -2.29546643524440E-17  -1.21757721712851E-15  -1.24053188148095E-15  -1.98695663137399E-15
      1.30000000000000E-01
      8.00000000000000E-01   8.00000000000000E-01   0.00000000000000E+00   0.00000000000000E+00   1.32630779891247E-15
     -4.49883563198881E-19   1.32585791534928E-15   3.47623441696934E-15   0.00000000000000E+00   0.00000000000000E+00
      0.00000000000000E+00   0.00000000000000E+00  -1.03630070163425E-18  -7.46291745281388E-17  -7.56654752297730E-17
     -1.48280373969358E-15  -6.50000000000000E+00  -6.50000000000000E+00   0.00000000000000E+00   0.00000000000000E+00
     -2.29548817856732E-17  -1.22723755833383E-15  -1.25019244011950E-15  -1.99343067727576E-15
      1.40000000000000E-01
      8.00000000000000E-01   8.00000000000000E-01   0.00000000000000E+00   0.00000000000000E+00   1.33284770010464E-15
     -8.81968003262943E-19   1.33196573210138E-15   3.46947437274732E-15   0.00000000000000E+00   0.00000000000000E+00
      0.00000000000000E+00   0.00000000000000E+00  -1.03629703444133E-18  -7.45407529763543E-17  -7.55770500107957E-17
     -1.46932686850390E-15  -7.00000000000000E+00  -7.00000000000000E+00   0.00000000000000E+00   0.00000000000000E+00
     -2.29551077072742E-17  -1.23343357438331E-15  -1.25638868209058E-15  -2.00014750424342E-15
      1.50000000000000E-01
      8.00000000000000E-01   8.00000000000000E-01   0.00000000000000E+00   0.00000000000000E+00   1.33820429572883E-15
      1.60617092802602E-18   1.33981046665686E-15   3.46240091864636E-15   0.00000000000000E+00   0.00000000000000E+00
      0.00000000000000E+00   0.00000000000000E+00  -1.03629329025485E-18  -7.42091180073308E-17  -7.52454112975856E-17
     -1.45529586699216E-15  -7.50000000000000E+00  -7.50000000000000E+00   0.00000000000000E+00   0.00000000000000E+00
     -2.29553420737089E-17  -1.24160971328556E-15  -1.26456505535927E-15  -2.00710505165421E-15
      1.60000000000000E-01
      8.00000000000000E-01   8.00000000000000E-01   0.00000000000000E+00   0.00000000000000E+00   1.34269326463655E-15
      2.03495866870886E-17   1.36304285132364E-15   3.45504503942760E-15   0.00000000000000E+00   0.00000000000000E+00
      0.00000000000000E+00   0.00000000000000E+00  -1.03628947729204E-18  -7.36565945606331E-17  -7.46928840379252E-17
     -1.44074395485570E-15  -8.00000000000000E+00  -8.00000000000000E+00   0.00000000000000E+00   0.00000000000000E+00
     -2.29555848361835E-17  -1.26539438244953E-15  -1.28834996728571E-15  -2.01430108457192E-15
      1.70000000000000E-01
      8.00000000000000E-01   8.00000000000000E-01   0.00000000000000E+00   0.00000000000000E+00   1.34649661678398E-15
      6.88556626969014E-18   1.35338218305367E-15   3.44743010174488E-15   0.00000000000000E+00   0.00000000000000E+00
      0.00000000000000E+00   0.00000000000000E+00  -1.03628560194771E-18  -7.29885452400292E-17  -7.40248308419769E-17
     -1.42569678009266E-15  -8.50000000000000E+00  -8.50000000000000E+00   0.00000000000000E+00   0.00000000000000E+00
     -2.29558359448977E-17  -1.25640151626680E-15  -1.27935735221170E-15  -2.02173332165222E-15
      1.80000000000000E-01
      8.00000000000000E-01   8.00000000000000E-01   0.00000000000000E+00   0.00000000000000E+00   1.34974801023502E-15
      7.26799165801296E-19   1.35047480940083E-15   3.43957438983359E-15   0.00000000000000E+00   0.00000000000000E+00
      0.00000000000000E+00   0.00000000000000E+00  -1.03628166944343E-18  -7.22003434203413E-17  -7.32366250897847E-17
     -1.41017488366035E-15  -9.00000000000000E+00  -9.00000000000000E+00   0.00000000000000E+00   0.00000000000000E+00
     -2.29560953514021E-17  -1.25428208895964E-15  -1.27723818431104E-15  -2.02939950617324E-15
      1.90000000000000E-01
      8.00000000000000E-01   8.00000000000000E-01   0.00000000000000E+00   0.00000000000000E+00   1.35256223666000E-15
     -3.87256798725536E-18   1.34868966867274E-15   3.43149267969960E-15   0.00000000000000E+00   0.00000000000000E+00
      0.00000000000000E+00   0.00000000000000E+00  -1.03627768421071E-18  -7.12868128970368E-17  -7.23230905812475E-17
     -1.39419523497748E-15  -9.50000000000000E+00  -9.50000000000000E+00   0.00000000000000E+00   0.00000000000000E+00
     -2.29563630098908E-17  -1.25341021508160E-15  -1.27636657809149E-15  -2.03729744472212E-15
      2.00000000000000E-01
      8.00000000000000E-01   8.00000000000000E-01   0.00000000000000E+00   0.00000000000000E+00   1.35502695663942E-15
     -3.34882279525057E-18   1.35167813384417E-15   3.42319725555390E-15   0.00000000000000E+00   0.00000000000000E+00
      0.00000000000000E+00   0.00000000000000E+00  -1.03627365012918E-18  -7.01439842179705E-17  -7.11802578680997E-17
     -1.37777222960061E-15  -1.00000000000000E+01  -1.00000000000000E+01   0.00000000000000E+00   0.00000000000000E+00
     -2.29566388778208E-17  -1.25754123709825E-15  -1.28049787597607E-15  -2.04542502595330E-15
      2.10000000000000E-01
      8.00000000000000E-01   8.00000000000000E-01   0.00000000000000E+00   0.00000000000000E+00   1.35720993571072E-15
     -7.33370688546058E-18   1.34987622882526E-15   3.41469859217750E-15   0.00000000000000E+00   0.00000000000000E+00
      0.00000000000000E+00   0.00000000000000E+00  -1.03626957068094E-18  -6.85242075624707E-17  -6.95604771331516E-17
     -1.36091836505364E-15  -1.05000000000000E+01  -1.05000000000000E+01   0.00000000000000E+00   0.00000000000000E+00
     -2.29569229161394E-17  -1.25735882877597E-15  -1.28031575169210E-15  -2.05378022712387E-15
      2.20000000000000E-01
      8.00000000000000E-01   8.00000000000000E-01   0.00000000000000E+00   0.00000000000000E+00   1.35918284932540E-15
     -1.06866854485765E-17   1.34849616387682E-15   3.40600584716854E-15   0.00000000000000E+00   0.00000000000000E+00
      0.00000000000000E+00   0.00000000000000E+00  -1.03626544905660E-18  -6.54015604182638E-17  -6.64378258673204E-17
     -1.34364473302870E-15  -1.10000000000000E+01  -1.10000000000000E+01   0.00000000000000E+00   0.00000000000000E+00
     -2.29572150892826E-17  -1.25910112292022E-15  -1.28205833800950E-15  -2.06236111413985E-15
      2.30000000000000E-01
      8.00000000000000E-01   8.00000000000000E-01   0.00000000000000E+00   0.00000000000000E+00   1.36100227982189E-15
      7.06262073757046E-18   1.36806490055946E-15   3.39712726576052E-15   0.00000000000000E+00   0.00000000000000E+00
      0.00000000000000E+00   0.00000000000000E+00  -1.03626128823439E-18  -5.72477485425939E-17  -5.82840098308283E-17
     -1.32596142618802E-15  -1.15000000000000E+01  -1.15000000000000E+01   0.00000000000000E+00   0.00000000000000E+00
     -2.29575153651114E-17  -1.28682337536352E-15  -1.30978089072863E-15  -2.07116583957250E-15
      2.40000000000000E-01
      8.00000000000000E-01   8.00000000000000E-01   0.00000000000000E+00   0.00000000000000E+00   1.36270389390438E-15
     -3.82588623988362E-18   1.35887800766449E-15   3.38807057623727E-15   0.00000000000000E+00   0.00000000000000E+00
      0.00000000000000E+00   0.00000000000000E+00  -1.03625709104638E-18  -3.26238188559954E-17  -3.36600759470418E-17
     -1.30787793423717E-15  -1.20000000000000E+01  -1.20000000000000E+01   0.00000000000000E+00   0.00000000000000E+00
     -2.29578237148948E-17  -1.30226010800256E-15  -1.32521793171745E-15  -2.08019264200011E-15
      2.50000000000000E-01
      8.00000000000000E-01   8.00000000000000E-01   0.00000000000000E+00   0.00000000000000E+00   1.36431192711231E-15
      2.17984185391605E-18   1.36649176896622E-15   3.37884343925218E-15   0.00000000000000E+00   0.00000000000000E+00
      0.00000000000000E+00   0.00000000000000E+00  -1.03625286024038E-18   4.67374007355145E-17   4.57011478752742E-17
     -1.28940359013468E-15  -1.25000000000000E+01  -1.25000000000000E+01   0.00000000000000E+00   0.00000000000000E+00
     -2.29581401134193E-17  -1.38923477672808E-15  -1.41219291684150E-15  -2.08943984911751E-15
      2.60000000000000E-01
      8.00000000000000E-01   8.00000000000000E-01   0.00000000000000E+00   0.00000000000000E+00   1.36584199327187E-15
     -6.17999279928387E-18   1.35966200047258E-15   3.36945400493472E-15   0.00000000000000E+00   0.00000000000000E+00
      0.00000000000000E+00   0.00000000000000E+00  -1.03624859854263E-18   3.03658517073714E-16   3.02622268475172E-16
     -1.27054811862408E-15  -1.30000000000000E+01  -1.30000000000000E+01   0.00000000000000E+00   0.00000000000000E+00
     -2.29584645392970E-17  -1.63932580440846E-15  -1.66228426894775E-15  -2.09890588631064E-15
      2.70000000000000E-01
      8.00000000000000E-01   8.00000000000000E-01   0.00000000000000E+00   0.00000000000000E+00   1.36729956102614E-15
     -4.57685372059407E-17   1.32153102382020E-15   3.35991162001412E-15   0.00000000000000E+00   0.00000000000000E+00
      0.00000000000000E+00   0.00000000000000E+00  -1.03624430872101E-18   1.12510827274821E-15   1.12407202843949E-15
     -1.25132232840599E-15  -1.35000000000000E+01  -1.35000000000000E+01   0.00000000000000E+00   0.00000000000000E+00
     -2.29587969754883E-17  -2.42264425528420E-15  -2.44560305225969E-15  -2.10858929160813E-15
      2.80000000000000E-01
      8.00000000000000E-01   8.00000000000000E-01   0.00000000000000E+00   0.00000000000000E+00   1.36867841757407E-15
      2.99170715815223E-17   1.39859548915559E-15   3.35022770262649E-15   0.00000000000000E+00   0.00000000000000E+00
      0.00000000000000E+00   0.00000000000000E+00  -1.03623999363301E-18   3.69871385842414E-15   3.69767761843050E-15
     -1.23173896588821E-15  -1.40000000000000E+01  -1.40000000000000E+01   0.00000000000000E+00   0.00000000000000E+00
     -2.29591374100539E-17  -5.07331397017603E-15  -5.09627310758609E-15  -2.11848873673828E-15
      2.90000000000000E-01
      8.00000000000000E-01   8.00000000000000E-01   0.00000000000000E+00   0.00000000000000E+00   1.36996015314015E-15
      4.87474494063087E-18   1.37483489808078E-15   3.34041675441090E-15   0.00000000000000E+00   0.00000000000000E+00
      0.00000000000000E+00   0.00000000000000E+00  -1.03623565618311E-18   1.15737314513160E-14   1.15726952156598E-14
     -1.21181370221447E-15  -1.45000000000000E+01  -1.45000000000000E+01   0.00000000000000E+00   0.00000000000000E+00
     -2.29594858370280E-17  -1.29245706279036E-14  -1.29475301137406E-14  -2.12860305219643E-15
      3.00000000000000E-01
      8.00000000000000E-01   8.00000000000000E-01   0.00000000000000E+00   0.00000000000000E+00   1.37111249805352E-15
      3.69889924448189E-18   1.37481139729800E-15   3.33049740614310E-15   0.00000000000000E+00   0.00000000000000E+00
      0.00000000000000E+00   0.00000000000000E+00  -1.03623129886748E-18   3.50537292092854E-14   3.50526929779865E-14
     -1.19156615409961E-15  -1.50000000000000E+01  -1.50000000000000E+01   0.00000000000000E+00   0.00000000000000E+00
     -2.29598422573343E-17  -3.64045445330273E-14  -3.64275043752846E-14  -2.13893125204348E-15
      3.10000000000000E-01
      8.00000000000000E-01   8.00000000000000E-01   0.00000000000000E+00   0.00000000000000E+00   1.37208163240444E-15
     -1.21426420787816E-17   1.35993899032566E-15   3.32049331624499E-15   0.00000000000000E+00   0.00000000000000E+00
      0.00000000000000E+00   0.00000000000000E+00  -1.03622692159154E-18   1.03133696091138E-13   1.03132659864216E-13
     -1.17102076319022E-15  -1.55000000000000E+01  -1.55000000000000E+01   0.00000000000000E+00   0.00000000000000E+00
     -2.29602066794835E-17  -1.04469638647863E-13  -1.04492598854542E-13  -2.14947255305478E-15
      3.20000000000000E-01
      8.00000000000000E-01   8.00000000000000E-01   0.00000000000000E+00   0.00000000000000E+00   1.37277022623882E-15
     -1.00559533288501E-17   1.36271427290997E-15   3.31043371716974E-15   0.00000000000000E+00   0.00000000000000E+00
      0.00000000000000E+00   0.00000000000000E+00  -1.03622251280304E-18   2.94730608000190E-13   2.94729571777677E-13
     -1.15020733106107E-15  -1.60000000000000E+01  -1.60000000000000E+01   0.00000000000000E+00   0.00000000000000E+00
     -2.29605791200361E-17  -2.96069325471467E-13  -2.96092286050587E-13  -2.16022638610867E-15
      3.30000000000000E-01
      8.00000000000000E-01   8.00000000000000E-01   0.00000000000000E+00   0.00000000000000E+00   1.37298495811155E-15
      1.92516360325147E-18   1.37491012171480E-15   3.30035350621144E-15   0.00000000000000E+00   0.00000000000000E+00
      0.00000000000000E+00   0.00000000000000E+00  -1.03621801729778E-18   8.17093305262731E-13   8.17092269044713E-13
     -1.12916109603131E-15  -1.65000000000000E+01  -1.65000000000000E+01   0.00000000000000E+00   0.00000000000000E+00
     -2.29609596041536E-17  -8.18444218206828E-13  -8.18467179166432E-13  -2.17119241018013E-15
      3.40000000000000E-01
      8.00000000000000E-01   8.00000000000000E-01   0.00000000000000E+00   0.00000000000000E+00   1.37231776559535E-15
      1.40043859453583E-17   1.38632215154071E-15   3.29029303804211E-15   0.00000000000000E+00   0.00000000000000E+00
      0.00000000000000E+00   0.00000000000000E+00  -1.03621323371956E-18   2.19405773734874E-12   2.19405670113550E-12
     -1.10792247162391E-15  -1.70000000000000E+01  -1.70000000000000E+01   0.00000000000000E+00   0.00000000000000E+00
     -2.29613481675924E-17  -2.19542006193888E-12  -2.19544302328704E-12  -2.18237056641820E-15
      3.50000000000000E-01
      8.00000000000000E-01   8.00000000000000E-01   0.00000000000000E+00   0.00000000000000E+00   1.36989434544151E-15
      4.45211618403091E-17   1.41441550728182E-15   3.28029813425483E-15   0.00000000000000E+00   0.00000000000000E+00
      0.00000000000000E+00   0.00000000000000E+00  -1.03620753174175E-18   5.69642690264814E-12   5.69642586644060E-12
     -1.08653687740525E-15  -1.75000000000000E+01  -1.75000000000000E+01   0.00000000000000E+00   0.00000000000000E+00
     -2.29617448630800E-17  -5.69781732020303E-12  -5.69784028194789E-12  -2.19376125684958E-15
      3.60000000000000E-01
      8.00000000000000E-01   8.00000000000000E-01   0.00000000000000E+00   0.00000000000000E+00   1.36389820229894E-15
     -1.05787372279723E-17   1.35331946507097E-15   3.27042114818137E-15   0.00000000000000E+00   0.00000000000000E+00