DF-ISE text

Info {
  version   = 1.0
  type      = xyplot
  datasets  = [
    "time"
    "Ntop OuterVoltage" "Ntop InnerVoltage" "Ntop QuasiFermiPotential" "Ntop DisplacementCurrent" "Ntop eCurrent"
    "Ntop hCurrent" "Ntop TotalCurrent" "Ntop Charge" "Ptop OuterVoltage" "Ptop InnerVoltage"
    "Ptop QuasiFermiPotential" "Ptop DisplacementCurrent" "Ptop eCurrent" "Ptop hCurrent" "Ptop TotalCurrent"
    "Ptop Charge" "Pbot OuterVoltage" "Pbot InnerVoltage" "Pbot QuasiFermiPotential" "Pbot DisplacementCurrent"
    "Pbot eCurrent" "Pbot hCurrent" "Pbot TotalCurrent" "Pbot Charge" ]
  functions = [
    Time
    OuterVoltage InnerVoltage QuasiFermiPotential DisplacementCurrent eCurrent
    hCurrent TotalCurrent Charge OuterVoltage InnerVoltage
    QuasiFermiPotential DisplacementCurrent eCurrent hCurrent TotalCurrent
    Charge OuterVoltage InnerVoltage QuasiFermiPotential DisplacementCurrent
    eCurrent hCurrent TotalCurrent Charge ]
}

Data {
      0.00000000000000E+00
      0.00000000000000E+00   0.00000000000000E+00   0.00000000000000E+00   0.00000000000000E+00   2.37495284315287E-25
     -4.23058535888986E-18  -4.23058512139457E-18   2.92497535716682E-15   0.00000000000000E+00   0.00000000000000E+00
      0.00000000000000E+00   0.00000000000000E+00  -2.37487047246359E-25  -2.93843942855209E-20  -2.93846317725682E-20
     -1.00727217613601E-15   0.00000000000000E+00   0.00000000000000E+00   0.00000000000000E+00   0.00000000000000E+00
     -8.24556634871315E-30   4.25996975317538E-18   4.25996975316714E-18  -1.91770318103081E-15
      0.00000000000000E+00
      0.00000000000000E+00   0.00000000000000E+00   0.00000000000000E+00   0.00000000000000E+00   7.72210030791651E-27
      1.78335336006983E-18   1.78335336779193E-18   2.92497535727020E-15   0.00000000000000E+00   0.00000000000000E+00
      0.00000000000000E+00   0.00000000000000E+00  -7.71593553134760E-27  -1.91227163031142E-20  -1.91227240190497E-20
     -1.00727217613601E-15   0.00000000000000E+00   0.00000000000000E+00   0.00000000000000E+00   0.00000000000000E+00
     -5.65363700822677E-30  -1.76423064376722E-18  -1.76423064377288E-18  -1.91770318113419E-15
      1.00000000000000E-01
      8.00000000000000E-02   8.00000000000000E-02   0.00000000000000E+00   0.00000000000000E+00   1.48931803256481E-16
      3.11969517195304E-19   1.49243772773676E-16   2.99142575981466E-15   0.00000000000000E+00   0.00000000000000E+00
      0.00000000000000E+00   0.00000000000000E+00  -9.93421917675035E-19  -1.27796552690436E-17  -1.37730771867186E-17
     -1.07297978129033E-15   0.00000000000000E+00   0.00000000000000E+00   0.00000000000000E+00   0.00000000000000E+00
     -2.28396109806395E-17  -1.12631084606318E-16  -1.35470695586958E-16  -1.91844597852433E-15
      2.00000000000000E-01
      1.60000000000000E-01   1.60000000000000E-01   0.00000000000000E+00   0.00000000000000E+00   2.13728814316392E-16
      4.86517060769017E-19   2.14215331377161E-16   3.05482986932701E-15   0.00000000000000E+00   0.00000000000000E+00
      0.00000000000000E+00   0.00000000000000E+00  -1.03467433285801E-18  -1.98615788817771E-17  -2.08962532146351E-17
     -1.13564140296340E-15   0.00000000000000E+00   0.00000000000000E+00   0.00000000000000E+00   0.00000000000000E+00
     -2.29524633399952E-17  -1.70366614822531E-16  -1.93319078162526E-16  -1.91918846636360E-15
      3.00000000000000E-01
      2.40000000000000E-01   2.40000000000000E-01   0.00000000000000E+00   0.00000000000000E+00   2.66236650824599E-16
      7.07689231685126E-19   2.66944340056284E-16   3.11573989445108E-15   0.00000000000000E+00   0.00000000000000E+00
      0.00000000000000E+00   0.00000000000000E+00  -1.03622223754870E-18  -2.59014773519142E-17  -2.69376995894629E-17
     -1.19580902117134E-15   0.00000000000000E+00   0.00000000000000E+00   0.00000000000000E+00   0.00000000000000E+00
     -2.29524423937243E-17  -2.17054198073097E-16  -2.40006640466822E-16  -1.91993087327975E-15
      4.00000000000000E-01
      3.20000000000000E-01   3.20000000000000E-01   0.00000000000000E+00   0.00000000000000E+00   3.12723572735546E-16
      4.08217184305644E-19   3.13131789919852E-16   3.17453907080913E-15   0.00000000000000E+00   0.00000000000000E+00
      0.00000000000000E+00   0.00000000000000E+00  -1.03627709195931E-18  -3.14577794868631E-17  -3.24940565788224E-17
     -1.25386585509328E-15   0.00000000000000E+00   0.00000000000000E+00   0.00000000000000E+00   0.00000000000000E+00
     -2.29524636556220E-17  -2.57685269685408E-16  -2.80637733341030E-16  -1.92067321571585E-15
      5.00000000000000E-01
      4.00000000000000E-01   4.00000000000000E-01   0.00000000000000E+00   0.00000000000000E+00   3.55287598705682E-16
     -8.13668980348676E-19   3.54473929725334E-16   3.23149117940140E-15   0.00000000000000E+00   0.00000000000000E+00
      0.00000000000000E+00   0.00000000000000E+00  -1.03628694569513E-18  -3.66116368173589E-17  -3.76479237630540E-17
     -1.31007575046856E-15   0.00000000000000E+00   0.00000000000000E+00   0.00000000000000E+00   0.00000000000000E+00
     -2.29524876671481E-17  -2.93873518295131E-16  -3.16826005962279E-16  -1.92141542893284E-15
      6.00000000000000E-01
      4.80000000000000E-01   4.80000000000000E-01   0.00000000000000E+00   0.00000000000000E+00   3.95122462285345E-16
      7.48254697111464E-19   3.95870716982456E-16   3.28676739712183E-15   0.00000000000000E+00   0.00000000000000E+00
      0.00000000000000E+00   0.00000000000000E+00  -1.03629568396214E-18  -4.15189270803366E-17  -4.25552227642987E-17
     -1.36460997069630E-15   0.00000000000000E+00   0.00000000000000E+00   0.00000000000000E+00   0.00000000000000E+00
     -2.29525117995327E-17  -3.30362982418625E-16  -3.53315494218157E-16  -1.92215742642554E-15
      7.00000000000000E-01
      5.60000000000000E-01   5.60000000000000E-01   0.00000000000000E+00   0.00000000000000E+00   4.32887752442308E-16
      7.24430941864078E-20   4.32960195536494E-16   3.34045950253848E-15   0.00000000000000E+00   0.00000000000000E+00
      0.00000000000000E+00   0.00000000000000E+00  -1.03630392462570E-18  -4.62390466197001E-17  -4.72753505443258E-17
     -1.41756037787829E-15   0.00000000000000E+00   0.00000000000000E+00   0.00000000000000E+00   0.00000000000000E+00
     -2.29525359631353E-17  -3.62732309029033E-16  -3.85684844992168E-16  -1.92289912466019E-15
      8.00000000000000E-01
      6.40000000000000E-01   6.40000000000000E-01   0.00000000000000E+00   0.00000000000000E+00   4.68897835066934E-16
      1.29173128575708E-18   4.70189566352691E-16   3.39258604691983E-15   0.00000000000000E+00   0.00000000000000E+00
      0.00000000000000E+00   0.00000000000000E+00  -1.03631183898445E-18  -5.08623954413930E-17  -5.18987072803775E-17
     -1.46894559571310E-15   0.00000000000000E+00   0.00000000000000E+00   0.00000000000000E+00   0.00000000000000E+00
     -2.29525601478021E-17  -3.95338298924513E-16  -4.18290859072315E-16  -1.92364045120672E-15
      9.00000000000000E-01
      7.20000000000000E-01   7.20000000000000E-01   0.00000000000000E+00   0.00000000000000E+00   5.03391827444938E-16
      8.47898137449556E-19   5.04239725582388E-16   3.44310071145067E-15   0.00000000000000E+00   0.00000000000000E+00
      0.00000000000000E+00   0.00000000000000E+00  -1.03631926909884E-18  -5.54907416986088E-17  -5.65270609677076E-17
     -1.51871936722126E-15   0.00000000000000E+00   0.00000000000000E+00   0.00000000000000E+00   0.00000000000000E+00
     -2.29525843476006E-17  -4.24760080267079E-16  -4.47712664614680E-16  -1.92438134422941E-15
      1.00000000000000E+00
      8.00000000000000E-01   8.00000000000000E-01   0.00000000000000E+00   0.00000000000000E+00   5.36619259945049E-16
     -1.98054050713833E-19   5.36421205894335E-16   3.49191979667831E-15   0.00000000000000E+00   0.00000000000000E+00
      0.00000000000000E+00   0.00000000000000E+00  -1.03632610905216E-18  -6.02405973796711E-17  -6.12769234887233E-17
     -1.56679805104837E-15   0.00000000000000E+00   0.00000000000000E+00   0.00000000000000E+00   0.00000000000000E+00
     -2.29526085575585E-17  -4.52191673848053E-16  -4.75144282405612E-16  -1.92512174562994E-15
      0.00000000000000E+00
      8.00000000000000E-01   8.00000000000000E-01   0.00000000000000E+00   0.00000000000000E+00   5.36619259995274E-16
      3.43142807230922E-19   5.36962402802505E-16   3.49191979667831E-15   0.00000000000000E+00   0.00000000000000E+00
      0.00000000000000E+00   0.00000000000000E+00  -1.03632615927860E-18  -6.02438830156051E-17  -6.12802091748837E-17
     -1.56679805104837E-15   0.00000000000000E+00   0.00000000000000E+00   0.00000000000000E+00   0.00000000000000E+00
     -2.29526085575586E-17  -4.52729585070062E-16  -4.75682193627621E-16  -1.92512174562994E-15
      1.00000000000000E-02
      8.00000000000000E-01   8.00000000000000E-01   0.00000000000000E+00   0.00000000000000E+00   6.91232176970283E-16
     -3.31552608234642E-18   6.87916650887937E-16   3.49652447498060E-15   0.00000000000000E+00   0.00000000000000E+00
      0.00000000000000E+00   0.00000000000000E+00  -1.03632615494325E-18  -5.96902091938073E-17  -6.07265353487506E-17
     -1.56678621522731E-15  -5.00000000000000E-01  -5.00000000000000E-01   0.00000000000000E+00   0.00000000000000E+00
     -2.29527595502420E-17  -6.04237355988944E-16  -6.27190115539186E-16  -1.92973825975329E-15
      2.00000000000000E-02
      8.00000000000000E-01   8.00000000000000E-01   0.00000000000000E+00   0.00000000000000E+00   8.19583595783587E-16
      3.24568773818586E-19   8.19908164557405E-16   3.50107036045233E-15   0.00000000000000E+00   0.00000000000000E+00
      0.00000000000000E+00   0.00000000000000E+00  -1.03632613538413E-18  -5.92988421458036E-17  -6.03351682811877E-17
     -1.56673282414295E-15  -1.00000000000000E+00  -1.00000000000000E+00   0.00000000000000E+00   0.00000000000000E+00
     -2.29529114254964E-17  -7.36620084850721E-16  -7.59572996276218E-16  -1.93433753630937E-15
      3.00000000000000E-02
      8.00000000000000E-01   8.00000000000000E-01   0.00000000000000E+00   0.00000000000000E+00   9.30079251663183E-16
      5.53907594778167E-18   9.35618327610965E-16   3.50547013894801E-15   0.00000000000000E+00   0.00000000000000E+00
      0.00000000000000E+00   0.00000000000000E+00  -1.03632606390864E-18  -5.90536781875704E-17  -6.00900042514790E-17
     -1.56653773083714E-15  -1.50000000000000E+00  -1.50000000000000E+00   0.00000000000000E+00   0.00000000000000E+00
     -2.29530631629837E-17  -8.52575260196503E-16  -8.75528323359487E-16  -1.93893240811087E-15
      4.00000000000000E-02
      8.00000000000000E-01   8.00000000000000E-01   0.00000000000000E+00   0.00000000000000E+00   1.02157265108822E-15
      2.40581384818668E-18   1.02397846493640E-15   3.50953361523591E-15   0.00000000000000E+00   0.00000000000000E+00
      0.00000000000000E+00   0.00000000000000E+00  -1.03632585382534E-18  -5.90191507013248E-17  -6.00554765551502E-17
     -1.56596402389012E-15  -2.00000000000000E+00  -2.00000000000000E+00   0.00000000000000E+00   0.00000000000000E+00
     -2.29532166520624E-17  -9.40969771729190E-16  -9.63922988381252E-16  -1.94356959134579E-15
      5.00000000000000E-02
      8.00000000000000E-01   8.00000000000000E-01   0.00000000000000E+00   0.00000000000000E+00   1.09395116965570E-15
      8.23943248101581E-19   1.09477511290380E-15   3.51290911079660E-15   0.00000000000000E+00   0.00000000000000E+00
      0.00000000000000E+00   0.00000000000000E+00  -1.03632535442384E-18  -5.91712766041703E-17  -6.02076019585941E-17
     -1.56459674628483E-15  -2.50000000000000E+00  -2.50000000000000E+00   0.00000000000000E+00   0.00000000000000E+00
     -2.29533739493233E-17  -1.01161413699589E-15  -1.03456751094521E-15  -1.94831236451177E-15
      6.00000000000000E-02
      8.00000000000000E-01   8.00000000000000E-01   0.00000000000000E+00   0.00000000000000E+00   1.15118897573296E-15
      2.21591995471044E-18   1.15340489568767E-15   3.51512871178969E-15   0.00000000000000E+00   0.00000000000000E+00
      0.00000000000000E+00   0.00000000000000E+00  -1.03632438228709E-18  -5.96566293603420E-17  -6.06929537426291E-17
     -1.56191628802413E-15  -3.00000000000000E+00  -3.00000000000000E+00   0.00000000000000E+00   0.00000000000000E+00
     -2.29535367560946E-17  -1.06975840518895E-15  -1.09271194194504E-15  -1.95321242376557E-15
      7.00000000000000E-02
      8.00000000000000E-01   8.00000000000000E-01   0.00000000000000E+00   0.00000000000000E+00   1.19638893144106E-15
     -1.11187481189062E-17   1.18527018332215E-15   3.51582340604155E-15   0.00000000000000E+00   0.00000000000000E+00
      0.00000000000000E+00   0.00000000000000E+00  -1.03632281094441E-18  -6.06367634320352E-17  -6.16730862429796E-17
     -1.55751738821710E-15  -3.50000000000000E+00  -3.50000000000000E+00   0.00000000000000E+00   0.00000000000000E+00
     -2.29537062779239E-17  -1.10064339080125E-15  -1.12359709707917E-15  -1.95830601782445E-15
      8.00000000000000E-02
      8.00000000000000E-01   8.00000000000000E-01   0.00000000000000E+00   0.00000000000000E+00   1.23131042437385E-15
     -4.60367776912850E-18   1.22670674660472E-15   3.51495725551551E-15   0.00000000000000E+00   0.00000000000000E+00
      0.00000000000000E+00   0.00000000000000E+00  -1.03632065673675E-18  -6.22165394622249E-17  -6.32528601189616E-17
     -1.55134104603603E-15  -4.00000000000000E+00  -4.00000000000000E+00   0.00000000000000E+00   0.00000000000000E+00
     -2.29538832921256E-17  -1.14050000319363E-15  -1.16345388648576E-15  -1.96361620947947E-15
      9.00000000000000E-02
      8.00000000000000E-01   8.00000000000000E-01   0.00000000000000E+00   0.00000000000000E+00   1.25894607226555E-15
      3.37267671437181E-18   1.26231874897992E-15   3.51281276776304E-15   0.00000000000000E+00   0.00000000000000E+00
      0.00000000000000E+00   0.00000000000000E+00  -1.03631805324916E-18  -6.44910537784234E-17  -6.55273718316726E-17
     -1.54365440326001E-15  -4.50000000000000E+00  -4.50000000000000E+00   0.00000000000000E+00   0.00000000000000E+00
     -2.29540683260902E-17  -1.17383730882216E-15  -1.19679137714825E-15  -1.96915836450303E-15
      1.00000000000000E-01
      8.00000000000000E-01   8.00000000000000E-01   0.00000000000000E+00   0.00000000000000E+00   1.28086465796693E-15
      2.11482440765822E-18   1.28297948237459E-15   3.50973545351409E-15   0.00000000000000E+00   0.00000000000000E+00
      0.00000000000000E+00   0.00000000000000E+00  -1.03631514191453E-18  -6.72403139280769E-17  -6.82766290699914E-17
     -1.53479356147594E-15  -5.00000000000000E+00  -5.00000000000000E+00   0.00000000000000E+00   0.00000000000000E+00
     -2.29542617128100E-17  -1.19174859159179E-15  -1.21470285330460E-15  -1.97494189203814E-15
      1.10000000000000E-01
      8.00000000000000E-01   8.00000000000000E-01   0.00000000000000E+00   0.00000000000000E+00   1.29772487725365E-15
     -4.37904214516671E-18   1.29334583510849E-15   3.50597779964833E-15   0.00000000000000E+00   0.00000000000000E+00
      0.00000000000000E+00   0.00000000000000E+00  -1.03631201778491E-18  -6.96566589634889E-17  -7.06929709812738E-17
     -1.52500667649020E-15  -5.50000000000000E+00  -5.50000000000000E+00   0.00000000000000E+00   0.00000000000000E+00
     -2.29544636184627E-17  -1.19969840050875E-15  -1.22265286412722E-15  -1.98097112315812E-15
      1.20000000000000E-01
      8.00000000000000E-01   8.00000000000000E-01   0.00000000000000E+00   0.00000000000000E+00   1.31020245571981E-15
      1.31635700032822E-17   1.32336602572309E-15   3.50169612623458E-15   0.00000000000000E+00   0.00000000000000E+00
      0.00000000000000E+00   0.00000000000000E+00  -1.03630873590639E-18  -7.12123374211742E-17  -7.22486461570806E-17
     -1.51444905820080E-15  -6.00000000000000E+00  -6.00000000000000E+00   0.00000000000000E+00   0.00000000000000E+00
     -2.29546740999409E-17  -1.22816270546607E-15  -1.25111737956601E-15  -1.98724706803378E-15
      1.30000000000000E-01
      8.00000000000000E-01   8.00000000000000E-01   0.00000000000000E+00   0.00000000000000E+00   1.31954234274645E-15
     -1.35012076370526E-17   1.30604113510940E-15   3.49698605864478E-15   0.00000000000000E+00   0.00000000000000E+00
      0.00000000000000E+00   0.00000000000000E+00  -1.03630532832758E-18  -7.19706411851304E-17  -7.30069465134580E-17
     -1.50321714375620E-15  -6.50000000000000E+00  -6.50000000000000E+00   0.00000000000000E+00   0.00000000000000E+00
     -2.29548931543070E-17  -1.21007929544163E-15  -1.23303418859594E-15  -1.99376891488858E-15
      1.40000000000000E-01
      8.00000000000000E-01   8.00000000000000E-01   0.00000000000000E+00   0.00000000000000E+00   1.32686737081748E-15
      2.88213293584402E-19   1.32715558411107E-15   3.49190896818187E-15   0.00000000000000E+00   0.00000000000000E+00
      0.00000000000000E+00   0.00000000000000E+00  -1.03630181505749E-18  -7.22258723490389E-17  -7.32621741640963E-17
     -1.49137404497426E-15  -7.00000000000000E+00  -7.00000000000000E+00   0.00000000000000E+00   0.00000000000000E+00
     -2.29551207483485E-17  -1.23093828919863E-15  -1.25389340994697E-15  -2.00053492320762E-15
      1.50000000000000E-01
      8.00000000000000E-01   8.00000000000000E-01   0.00000000000000E+00   0.00000000000000E+00   1.33285761605854E-15
      9.73560805095549E-18   1.34259322410950E-15   3.48650675721049E-15   0.00000000000000E+00   0.00000000000000E+00
      0.00000000000000E+00   0.00000000000000E+00  -1.03629820967138E-18  -7.21616689686113E-17  -7.31979671782827E-17
     -1.47896385553256E-15  -7.50000000000000E+00  -7.50000000000000E+00   0.00000000000000E+00   0.00000000000000E+00
     -2.29553568344064E-17  -1.24643990009681E-15  -1.26939525693121E-15  -2.00754290167792E-15
      1.60000000000000E-01
      8.00000000000000E-01   8.00000000000000E-01   0.00000000000000E+00   0.00000000000000E+00   1.33787983754703E-15
     -9.74069291572758E-18   1.32813914463130E-15   3.48080974978913E-15   0.00000000000000E+00   0.00000000000000E+00
      0.00000000000000E+00   0.00000000000000E+00  -1.03629452208658E-18  -7.18969763663743E-17  -7.29332708884609E-17
     -1.46601928809784E-15  -8.00000000000000E+00  -8.00000000000000E+00   0.00000000000000E+00   0.00000000000000E+00
     -2.29556013587793E-17  -1.23225027238406E-15  -1.25520587374284E-15  -2.01479046169130E-15
      1.70000000000000E-01
      8.00000000000000E-01   8.00000000000000E-01   0.00000000000000E+00   0.00000000000000E+00   1.34214763512212E-15
     -1.76825012774668E-17   1.32446513384465E-15   3.47484103371588E-15   0.00000000000000E+00   0.00000000000000E+00
      0.00000000000000E+00   0.00000000000000E+00  -1.03629075999293E-18  -7.15138569589014E-17  -7.25501477188943E-17
     -1.45256587864927E-15  -8.50000000000000E+00  -8.50000000000000E+00   0.00000000000000E+00   0.00000000000000E+00
     -2.29558542662982E-17  -1.22895913185946E-15  -1.25191498612576E-15  -2.02227515506661E-15
      1.80000000000000E-01
      8.00000000000000E-01   8.00000000000000E-01   0.00000000000000E+00   0.00000000000000E+00   1.34581313083564E-15
     -1.86675903982280E-18   1.34394637179582E-15   3.46861898700775E-15   0.00000000000000E+00   0.00000000000000E+00
      0.00000000000000E+00   0.00000000000000E+00  -1.03628692964047E-18  -7.09535617495864E-17  -7.19898486792269E-17
     -1.43862443629495E-15  -9.00000000000000E+00  -9.00000000000000E+00   0.00000000000000E+00   0.00000000000000E+00
     -2.29561155028644E-17  -1.24900040761372E-15  -1.27195652311659E-15  -2.02999455071280E-15
      1.90000000000000E-01
      8.00000000000000E-01   8.00000000000000E-01   0.00000000000000E+00   0.00000000000000E+00   1.34900517788794E-15
      8.83092140937850E-18   1.35783609929732E-15   3.46215882933720E-15   0.00000000000000E+00   0.00000000000000E+00
      0.00000000000000E+00   0.00000000000000E+00  -1.03628303630323E-18  -7.03204869893467E-17  -7.13567700256500E-17
     -1.42421255234384E-15  -9.50000000000000E+00  -9.50000000000000E+00   0.00000000000000E+00   0.00000000000000E+00
     -2.29563850168664E-17  -1.26352294425480E-15  -1.28647932927167E-15  -2.03794627699337E-15
      2.00000000000000E-01
      8.00000000000000E-01   8.00000000000000E-01   0.00000000000000E+00   0.00000000000000E+00   1.35183368710593E-15
     -1.18734517996756E-17   1.33996023530625E-15   3.45547361050165E-15   0.00000000000000E+00   0.00000000000000E+00
      0.00000000000000E+00   0.00000000000000E+00  -1.03627908456703E-18  -6.95709258977034E-17  -7.06072049822705E-17
     -1.40934556730349E-15  -1.00000000000000E+01  -1.00000000000000E+01   0.00000000000000E+00   0.00000000000000E+00
     -2.29566627598901E-17  -1.24639636756409E-15  -1.26935303032398E-15  -2.04612804319817E-15
      2.10000000000000E-01
      8.00000000000000E-01   8.00000000000000E-01   0.00000000000000E+00   0.00000000000000E+00   1.35437534182287E-15
      2.22255986696099E-19   1.35459759780956E-15   3.44857485258401E-15   0.00000000000000E+00   0.00000000000000E+00
      0.00000000000000E+00   0.00000000000000E+00  -1.03627507851487E-18  -6.85448501905726E-17  -6.95811252690875E-17
     -1.39403720490992E-15  -1.05000000000000E+01  -1.05000000000000E+01   0.00000000000000E+00   0.00000000000000E+00
     -2.29569486869969E-17  -1.26205952385348E-15  -1.28501647254047E-15  -2.05453764767410E-15
      2.20000000000000E-01
      8.00000000000000E-01   8.00000000000000E-01   0.00000000000000E+00   0.00000000000000E+00   1.35668851228046E-15
     -5.23870657101355E-18   1.35144980570944E-15   3.44147297412896E-15   0.00000000000000E+00   0.00000000000000E+00
      0.00000000000000E+00   0.00000000000000E+00  -1.03627102185014E-18  -6.69350812221172E-17  -6.79713522439674E-17
     -1.37829999640021E-15  -1.10000000000000E+01  -1.10000000000000E+01   0.00000000000000E+00   0.00000000000000E+00
     -2.29572427567114E-17  -1.26052121070877E-15  -1.28347845346548E-15  -2.06317297772875E-15
      2.30000000000000E-01
      8.00000000000000E-01   8.00000000000000E-01   0.00000000000000E+00   0.00000000000000E+00   1.35883509744868E-15
     -1.98351157665231E-17   1.33899998168216E-15   3.43417758174256E-15   0.00000000000000E+00   0.00000000000000E+00
      0.00000000000000E+00   0.00000000000000E+00  -1.03626691798190E-18  -6.35316605592277E-17  -6.45679274772096E-17
     -1.36214557653947E-15  -1.15000000000000E+01  -1.15000000000000E+01   0.00000000000000E+00   0.00000000000000E+00
     -2.29575449308790E-17  -1.25147450927407E-15  -1.27443205420495E-15  -2.07203200520309E-15
      2.40000000000000E-01
      8.00000000000000E-01   8.00000000000000E-01   0.00000000000000E+00   0.00000000000000E+00   1.36086111391511E-15
     -2.44153708946120E-19   1.36061696020616E-15   3.42669769013312E-15   0.00000000000000E+00   0.00000000000000E+00
      0.00000000000000E+00   0.00000000000000E+00  -1.03626277008772E-18  -5.42636229674125E-17  -5.52998857375002E-17
     -1.34558490944850E-15  -1.20000000000000E+01  -1.20000000000000E+01   0.00000000000000E+00   0.00000000000000E+00
     -2.29578551744677E-17  -1.28235921929420E-15  -1.30531707446866E-15  -2.08111278068463E-15
      2.50000000000000E-01
      8.00000000000000E-01   8.00000000000000E-01   0.00000000000000E+00   0.00000000000000E+00   1.36279258957104E-15
     -1.43268038344581E-19   1.36264932153269E-15   3.41904191628173E-15   0.00000000000000E+00   0.00000000000000E+00
      0.00000000000000E+00   0.00000000000000E+00  -1.03625858116387E-18  -2.57231646645923E-17  -2.67594232457562E-17
     -1.32862848775764E-15  -1.25000000000000E+01  -1.25000000000000E+01   0.00000000000000E+00   0.00000000000000E+00
     -2.29581734553949E-17  -1.31293172483154E-15  -1.33588989828694E-15  -2.09041342852410E-15
      2.60000000000000E-01
      8.00000000000000E-01   8.00000000000000E-01   0.00000000000000E+00   0.00000000000000E+00   1.36464444096795E-15
     -2.49031452211194E-17   1.33974129574683E-15   3.41121868459825E-15   0.00000000000000E+00   0.00000000000000E+00
      0.00000000000000E+00   0.00000000000000E+00  -1.03625435406959E-18   6.56464821638892E-17   6.46102278098196E-17
     -1.31128654040981E-15  -1.30000000000000E+01  -1.30000000000000E+01   0.00000000000000E+00   0.00000000000000E+00
     -2.29584997444484E-17  -1.38139302381220E-15  -1.40435152355665E-15  -2.09993214418845E-15
      2.70000000000000E-01
      8.00000000000000E-01   8.00000000000000E-01   0.00000000000000E+00   0.00000000000000E+00   1.36642353104846E-15
      2.77846156734262E-17   1.39420814672189E-15   3.40323647641479E-15   0.00000000000000E+00   0.00000000000000E+00
      0.00000000000000E+00   0.00000000000000E+00  -1.03625009156941E-18   3.58313431174157E-16   3.57277181082588E-16
     -1.29356928133561E-15  -1.35000000000000E+01  -1.35000000000000E+01   0.00000000000000E+00   0.00000000000000E+00
     -2.29588340153139E-17  -1.72852649378916E-15  -1.75148532780448E-15  -2.10966719507918E-15
      2.80000000000000E-01
      8.00000000000000E-01   8.00000000000000E-01   0.00000000000000E+00   0.00000000000000E+00   1.36812697328608E-15
      7.40693538872068E-18   1.37553390867480E-15   3.39510415715764E-15   0.00000000000000E+00   0.00000000000000E+00
      0.00000000000000E+00   0.00000000000000E+00  -1.03624579637449E-18   1.28288901593368E-15   1.28185277013730E-15
     -1.27548723142850E-15  -1.40000000000000E+01  -1.40000000000000E+01   0.00000000000000E+00   0.00000000000000E+00
     -2.29591762447530E-17  -2.63442750256735E-15  -2.65738667881211E-15  -2.11961692572914E-15
      2.90000000000000E-01
      8.00000000000000E-01   8.00000000000000E-01   0.00000000000000E+00   0.00000000000000E+00   1.36974156048298E-15
     -1.65453613668305E-17   1.35319619911615E-15   3.38683141507899E-15   0.00000000000000E+00   0.00000000000000E+00
      0.00000000000000E+00   0.00000000000000E+00  -1.03624147117223E-18   4.14733733689184E-15   4.14630109542067E-15
     -1.25705164691833E-15  -1.45000000000000E+01  -1.45000000000000E+01   0.00000000000000E+00   0.00000000000000E+00
     -2.29595264129762E-17  -5.47653776812386E-15  -5.49949729453683E-15  -2.12977976816066E-15
      3.00000000000000E-01
      8.00000000000000E-01   8.00000000000000E-01   0.00000000000000E+00   0.00000000000000E+00   1.37124391802493E-15
      1.00503730169160E-17   1.38129429104184E-15   3.37842934245676E-15   0.00000000000000E+00   0.00000000000000E+00
      0.00000000000000E+00   0.00000000000000E+00  -1.03623711858646E-18   1.28240286643250E-14   1.28229924272064E-14
     -1.23827508442111E-15  -1.50000000000000E+01  -1.50000000000000E+01   0.00000000000000E+00   0.00000000000000E+00
     -2.29598845042097E-17  -1.41813268337440E-14  -1.42042867182482E-14  -2.14015425803564E-15
      3.10000000000000E-01
      8.00000000000000E-01   8.00000000000000E-01   0.00000000000000E+00   0.00000000000000E+00   1.37259913605563E-15
     -2.15235478262124E-17   1.35107558822941E-15   3.36991117897284E-15   0.00000000000000E+00   0.00000000000000E+00
      0.00000000000000E+00   0.00000000000000E+00  -1.03623274080964E-18   3.84667993940528E-14   3.84657631613120E-14
     -1.21917212186141E-15  -1.55000000000000E+01  -1.55000000000000E+01   0.00000000000000E+00   0.00000000000000E+00
     -2.29602505074901E-17  -3.97938784990341E-14  -3.98168387495416E-14  -2.15073905711143E-15
      3.20000000000000E-01
      8.00000000000000E-01   8.00000000000000E-01   0.00000000000000E+00   0.00000000000000E+00   1.37375331317410E-15
     -2.21461301888552E-17   1.35160718298524E-15   3.36129321420415E-15   0.00000000000000E+00   0.00000000000000E+00
      0.00000000000000E+00   0.00000000000000E+00  -1.03622833784233E-18   1.12267458132140E-13   1.12266421903802E-13
     -1.19976023133866E-15  -1.60000000000000E+01  -1.60000000000000E+01   0.00000000000000E+00   0.00000000000000E+00
     -2.29606244177208E-17  -1.13595068462370E-13  -1.13618029086787E-13  -2.16153298286548E-15
      3.30000000000000E-01
      8.00000000000000E-01   8.00000000000000E-01   0.00000000000000E+00   0.00000000000000E+00   1.37461071118142E-15
      1.24380105093903E-17   1.38704872169082E-15   3.35259581537297E-15   0.00000000000000E+00   0.00000000000000E+00
      0.00000000000000E+00   0.00000000000000E+00  -1.03622390033035E-18   3.18723702979357E-13   3.18722666755457E-13
     -1.18006076694774E-15  -1.65000000000000E+01  -1.65000000000000E+01   0.00000000000000E+00   0.00000000000000E+00
     -2.29610062371095E-17  -3.20086754470911E-13  -3.20109715477148E-13  -2.17253504842523E-15
      3.40000000000000E-01
      8.00000000000000E-01   8.00000000000000E-01   0.00000000000000E+00   0.00000000000000E+00   1.37497864392771E-15
     -1.69158994199399E-17   1.35806274450777E-15   3.34384452717167E-15   0.00000000000000E+00   0.00000000000000E+00
      0.00000000000000E+00   0.00000000000000E+00  -1.03621938351387E-18   8.79035509434551E-13   8.79034473215167E-13
     -1.16010000353347E-15  -1.70000000000000E+01  -1.70000000000000E+01   0.00000000000000E+00   0.00000000000000E+00
     -2.29613959773464E-17  -8.80369574563701E-13  -8.80392535959678E-13  -2.18374452363820E-15
      3.50000000000000E-01
      8.00000000000000E-01   8.00000000000000E-01   0.00000000000000E+00   0.00000000000000E+00   1.37444336881963E-15
     -3.64972992637228E-17   1.33794606955591E-15   3.33507122483836E-15   0.00000000000000E+00   0.00000000000000E+00
      0.00000000000000E+00   0.00000000000000E+00  -1.03621462371092E-18   2.35126699691156E-12   2.35126596069693E-12
     -1.13991017682493E-15  -1.75000000000000E+01  -1.75000000000000E+01   0.00000000000000E+00   0.00000000000000E+00
     -2.29617936636622E-17  -2.35258094497282E-12  -2.35260390676648E-12  -2.19516104801344E-15
      3.60000000000000E-01
      8.00000000000000E-01   8.00000000000000E-01   0.00000000000000E+00   0.00000000000000E+00   1.37210942099167E-15
      5.77675853433476E-18   1.37788617952600E-15   3.32631544624667E-15   0.00000000000000E+00   0.00000000000000E+00