DF-ISE text

Info {
  version   = 1.0
  type      = xyplot
  datasets  = [
    "time"
    "Ntop OuterVoltage" "Ntop InnerVoltage" "Ntop QuasiFermiPotential" "Ntop DisplacementCurrent" "Ntop eCurrent"
    "Ntop hCurrent" "Ntop TotalCurrent" "Ntop Charge" "Ptop OuterVoltage" "Ptop InnerVoltage"
    "Ptop QuasiFermiPotential" "Ptop DisplacementCurrent" "Ptop eCurrent" "Ptop hCurrent" "Ptop TotalCurrent"
    "Ptop Charge" "Pbot OuterVoltage" "Pbot InnerVoltage" "Pbot QuasiFermiPotential" "Pbot DisplacementCurrent"
    "Pbot eCurrent" "Pbot hCurrent" "Pbot TotalCurrent" "Pbot Charge" ]
  functions = [
    Time
    OuterVoltage InnerVoltage QuasiFermiPotential DisplacementCurrent eCurrent
    hCurrent TotalCurrent Charge OuterVoltage InnerVoltage
    QuasiFermiPotential DisplacementCurrent eCurrent hCurrent TotalCurrent
    Charge OuterVoltage InnerVoltage QuasiFermiPotential DisplacementCurrent
    eCurrent hCurrent TotalCurrent Charge ]
}

Data {
      0.00000000000000E+00
      0.00000000000000E+00   0.00000000000000E+00   0.00000000000000E+00   0.00000000000000E+00   6.10333247154640E-26
     -4.25270751570529E-18  -4.25270745467197E-18   2.90741107274223E-15   0.00000000000000E+00   0.00000000000000E+00
      0.00000000000000E+00   0.00000000000000E+00  -6.10246235130009E-26  -6.10506577405964E-20  -6.10507187652199E-20
     -9.89707891721797E-16   0.00000000000000E+00   0.00000000000000E+00   0.00000000000000E+00   0.00000000000000E+00
     -8.71621277176481E-30   4.31375817344590E-18   4.31375817343719E-18  -1.91770318102043E-15
      0.00000000000000E+00
      0.00000000000000E+00   0.00000000000000E+00   0.00000000000000E+00   0.00000000000000E+00   3.21591787369607E-27
     -1.01148694027619E-18  -1.01148693706027E-18   2.90741107284561E-15   0.00000000000000E+00   0.00000000000000E+00
      0.00000000000000E+00   0.00000000000000E+00  -3.22984392137571E-27  -2.12352378505447E-20  -2.12352410803887E-20
     -9.89707891721809E-16   0.00000000000000E+00   0.00000000000000E+00   0.00000000000000E+00   0.00000000000000E+00
      1.43694651455412E-29   1.03272217812629E-18   1.03272217814066E-18  -1.91770318112381E-15
      1.00000000000000E-01
      8.00000000000000E-02   8.00000000000000E-02   0.00000000000000E+00   0.00000000000000E+00   1.49547627417005E-16
      1.73611018595847E-19   1.49721238435601E-16   2.97948312961766E-15   0.00000000000000E+00   0.00000000000000E+00
      0.00000000000000E+00   0.00000000000000E+00  -9.93420048253817E-19  -1.35690769050548E-17  -1.45624969533086E-17
     -1.06103715112348E-15   0.00000000000000E+00   0.00000000000000E+00   0.00000000000000E+00   0.00000000000000E+00
     -2.28396109801591E-17  -1.12319130502133E-16  -1.35158741482292E-16  -1.91844597849418E-15
      2.00000000000000E-01
      1.60000000000000E-01   1.60000000000000E-01   0.00000000000000E+00   0.00000000000000E+00   2.14729216593341E-16
      8.45650865323109E-19   2.15574867458665E-16   3.04807373020206E-15   0.00000000000000E+00   0.00000000000000E+00
      0.00000000000000E+00   0.00000000000000E+00  -1.03467233978332E-18  -2.09629548755752E-17  -2.19976272153585E-17
     -1.12888526391699E-15   0.00000000000000E+00   0.00000000000000E+00   0.00000000000000E+00   0.00000000000000E+00
     -2.29524633394347E-17  -1.70624776903871E-16  -1.93577240243306E-16  -1.91918846628507E-15
      3.00000000000000E-01
      2.40000000000000E-01   2.40000000000000E-01   0.00000000000000E+00   0.00000000000000E+00   2.67579559820832E-16
      3.29427410554682E-19   2.67908987231387E-16   3.11382281003824E-15   0.00000000000000E+00   0.00000000000000E+00
      0.00000000000000E+00   0.00000000000000E+00  -1.03622031750458E-18  -2.73932540464893E-17  -2.84294743639939E-17
     -1.19389193695071E-15   0.00000000000000E+00   0.00000000000000E+00   0.00000000000000E+00   0.00000000000000E+00
     -2.29524423937188E-17  -2.16527070473674E-16  -2.39479512867393E-16  -1.91993087308753E-15
      4.00000000000000E-01
      3.20000000000000E-01   3.20000000000000E-01   0.00000000000000E+00   0.00000000000000E+00   3.14378559761998E-16
      5.83484072645633E-19   3.14962043834644E-16   3.17716467540793E-15   0.00000000000000E+00   0.00000000000000E+00
      0.00000000000000E+00   0.00000000000000E+00  -1.03627513070521E-18  -3.32665221563598E-17  -3.43027972870650E-17
     -1.25649146014222E-15   0.00000000000000E+00   0.00000000000000E+00   0.00000000000000E+00   0.00000000000000E+00
     -2.29524636556074E-17  -2.57706782891971E-16  -2.80659246547579E-16  -1.92067321526572E-15
      5.00000000000000E-01
      4.00000000000000E-01   4.00000000000000E-01   0.00000000000000E+00   0.00000000000000E+00   3.57246789424099E-16
     -3.80999603740140E-19   3.56865789820359E-16   3.23838651222320E-15   0.00000000000000E+00   0.00000000000000E+00
      0.00000000000000E+00   0.00000000000000E+00  -1.03628481852669E-18  -3.87130329239484E-17  -3.97493177424750E-17
     -1.31697108431324E-15   0.00000000000000E+00   0.00000000000000E+00   0.00000000000000E+00   0.00000000000000E+00
     -2.29524876671149E-17  -2.94163984410769E-16  -3.17116472077884E-16  -1.92141542790996E-15
      6.00000000000000E-01
      4.80000000000000E-01   4.80000000000000E-01   0.00000000000000E+00   0.00000000000000E+00   3.97384981520645E-16
      9.61244861509028E-19   3.98346226382154E-16   3.29765892080527E-15   0.00000000000000E+00   0.00000000000000E+00
      0.00000000000000E+00   0.00000000000000E+00  -1.03629334717980E-18  -4.39514124037631E-17  -4.49877057509429E-17
     -1.37550149666342E-15   0.00000000000000E+00   0.00000000000000E+00   0.00000000000000E+00   0.00000000000000E+00
     -2.29525117994584E-17  -3.30406008831752E-16  -3.53358520631211E-16  -1.92215742414185E-15
      7.00000000000000E-01
      5.60000000000000E-01   5.60000000000000E-01   0.00000000000000E+00   0.00000000000000E+00   4.35430797380629E-16
      1.56668144340135E-18   4.36997478824031E-16   3.35504892862657E-15   0.00000000000000E+00   0.00000000000000E+00
      0.00000000000000E+00   0.00000000000000E+00  -1.03630133316838E-18  -4.89424128198305E-17  -4.99787141529989E-17
     -1.43214980903765E-15   0.00000000000000E+00   0.00000000000000E+00   0.00000000000000E+00   0.00000000000000E+00
     -2.29525359629697E-17  -3.64066228708062E-16  -3.87018764671032E-16  -1.92289911958893E-15
      8.00000000000000E-01
      6.40000000000000E-01   6.40000000000000E-01   0.00000000000000E+00   0.00000000000000E+00   4.71739503993242E-16
      1.16122226547184E-18   4.72900726258714E-16   3.41052357421360E-15   0.00000000000000E+00   0.00000000000000E+00
      0.00000000000000E+00   0.00000000000000E+00  -1.03630895857731E-18  -5.38855213388110E-17  -5.49218302973883E-17
     -1.48688313434882E-15   0.00000000000000E+00   0.00000000000000E+00   0.00000000000000E+00   0.00000000000000E+00
     -2.29525601474322E-17  -3.95026335813893E-16  -4.17978895961325E-16  -1.92364043986478E-15
      9.00000000000000E-01
      7.20000000000000E-01   7.20000000000000E-01   0.00000000000000E+00   0.00000000000000E+00   5.06631512132089E-16
      4.79954901740298E-19   5.07111467033829E-16   3.46395818178563E-15   0.00000000000000E+00   0.00000000000000E+00
      0.00000000000000E+00   0.00000000000000E+00  -1.03631602812691E-18  -5.89218856024236E-17  -5.99582016305505E-17
     -1.53957686338915E-15   0.00000000000000E+00   0.00000000000000E+00   0.00000000000000E+00   0.00000000000000E+00
     -2.29525843467563E-17  -4.24200681056523E-16  -4.47153265403279E-16  -1.92438131839648E-15
      1.00000000000000E+00
      8.00000000000000E-01   8.00000000000000E-01   0.00000000000000E+00   0.00000000000000E+00   5.40419065877260E-16
     -2.40058299468735E-19   5.40179007577791E-16   3.51518115115418E-15   0.00000000000000E+00   0.00000000000000E+00
      0.00000000000000E+00   0.00000000000000E+00  -1.03632235751884E-18  -6.42673070909561E-17  -6.53036294484749E-17
     -1.59005946570297E-15   0.00000000000000E+00   0.00000000000000E+00   0.00000000000000E+00   0.00000000000000E+00
     -2.29526085555898E-17  -4.51922769573726E-16  -4.74875378129316E-16  -1.92512168545121E-15
      0.00000000000000E+00
      8.00000000000000E-01   8.00000000000000E-01   0.00000000000000E+00   0.00000000000000E+00   5.40419065980466E-16
     -1.73528036465625E-19   5.40245537944000E-16   3.51518115115419E-15   0.00000000000000E+00   0.00000000000000E+00
      0.00000000000000E+00   0.00000000000000E+00  -1.03632246073437E-18  -6.42800345233838E-17  -6.53163569841182E-17
     -1.59005946570297E-15   0.00000000000000E+00   0.00000000000000E+00   0.00000000000000E+00   0.00000000000000E+00
     -2.29526085555898E-17  -4.51976572404292E-16  -4.74929180959882E-16  -1.92512168545121E-15
      1.00000000000000E-02
      8.00000000000000E-01   8.00000000000000E-01   0.00000000000000E+00   0.00000000000000E+00   6.95070979184347E-16
     -2.90886295484362E-18   6.92162116229503E-16   3.51977936936853E-15   0.00000000000000E+00   0.00000000000000E+00
      0.00000000000000E+00   0.00000000000000E+00  -1.03632245508450E-18  -6.36774837432383E-17  -6.47138061983228E-17
     -1.59004149008743E-15  -5.00000000000000E-01  -5.00000000000000E-01   0.00000000000000E+00   0.00000000000000E+00
     -2.29527595377323E-17  -6.04495550493449E-16  -6.27448310031181E-16  -1.92973787928110E-15
      2.00000000000000E-02
      8.00000000000000E-01   8.00000000000000E-01   0.00000000000000E+00   0.00000000000000E+00   8.23592315875409E-16
      6.89527610531047E-19   8.24281843485940E-16   3.52429586116570E-15   0.00000000000000E+00   0.00000000000000E+00
      0.00000000000000E+00   0.00000000000000E+00  -1.03632242950626E-18  -6.32206736490707E-17  -6.42569960785770E-17
     -1.58996012770995E-15  -1.00000000000000E+00  -1.00000000000000E+00   0.00000000000000E+00   0.00000000000000E+00
     -2.29529113660377E-17  -7.37071936041325E-16  -7.60024847407363E-16  -1.93433573345576E-15
      3.00000000000000E-02
      8.00000000000000E-01   8.00000000000000E-01   0.00000000000000E+00   0.00000000000000E+00   9.34650336157485E-16
     -4.08011091018529E-18   9.30570225247300E-16   3.52858572018850E-15   0.00000000000000E+00   0.00000000000000E+00
      0.00000000000000E+00   0.00000000000000E+00  -1.03632233514065E-18  -6.29558806827724E-17  -6.39922030179130E-17
     -1.58966005570030E-15  -1.50000000000000E+00  -1.50000000000000E+00   0.00000000000000E+00   0.00000000000000E+00
     -2.29530629400144E-17  -8.43624959289373E-16  -8.66578022229387E-16  -1.93892566448821E-15
      4.00000000000000E-02
      8.00000000000000E-01   8.00000000000000E-01   0.00000000000000E+00   0.00000000000000E+00   1.02747080130055E-15
      4.11396540303565E-18   1.03158476670358E-15   3.53231059517007E-15   0.00000000000000E+00   0.00000000000000E+00
      0.00000000000000E+00   0.00000000000000E+00  -1.03632205248875E-18  -6.29357564740650E-17  -6.39720785265538E-17
     -1.58876099746108E-15  -2.00000000000000E+00  -2.00000000000000E+00   0.00000000000000E+00   0.00000000000000E+00
     -2.29532159895977E-17  -9.44659472187429E-16  -9.67612688177027E-16  -1.94354959770900E-15
      5.00000000000000E-02
      8.00000000000000E-01   8.00000000000000E-01   0.00000000000000E+00   0.00000000000000E+00   1.10243271185633E-15
      2.04093133676928E-18   1.10447364319310E-15   3.53482793114564E-15   0.00000000000000E+00   0.00000000000000E+00
      0.00000000000000E+00   0.00000000000000E+00  -1.03632136401438E-18  -6.32973732144211E-17  -6.43336945784354E-17
     -1.58656380084411E-15  -2.50000000000000E+00  -2.50000000000000E+00   0.00000000000000E+00   0.00000000000000E+00
     -2.29533723481416E-17  -1.01718657626652E-15  -1.04013994861466E-15  -1.94826413030154E-15
      6.00000000000000E-02
      8.00000000000000E-01   8.00000000000000E-01   0.00000000000000E+00   0.00000000000000E+00   1.16345795462318E-15
     -2.66575286885505E-18   1.16079220175432E-15   3.53530304983668E-15   0.00000000000000E+00   0.00000000000000E+00
      0.00000000000000E+00   0.00000000000000E+00  -1.03632000799591E-18  -6.42361057107523E-17  -6.52724257187482E-17
     -1.58218763646441E-15  -3.00000000000000E+00  -3.00000000000000E+00   0.00000000000000E+00   0.00000000000000E+00
     -2.29535335301821E-17  -1.07256624250539E-15  -1.09551977603557E-15  -1.95311541337227E-15
      7.00000000000000E-02
      8.00000000000000E-01   8.00000000000000E-01   0.00000000000000E+00   0.00000000000000E+00   1.21267903973090E-15
     -5.51969870382919E-18   1.20715934102707E-15   3.53325302374223E-15   0.00000000000000E+00   0.00000000000000E+00
      0.00000000000000E+00   0.00000000000000E+00  -1.03631786777004E-18  -6.60347348398666E-17  -6.70710527076366E-17
     -1.57511323548455E-15  -3.50000000000000E+00  -3.50000000000000E+00   0.00000000000000E+00   0.00000000000000E+00
     -2.29537007412446E-17  -1.11713458757819E-15  -1.14008828831943E-15  -1.95813978825768E-15
      8.00000000000000E-02
      8.00000000000000E-01   8.00000000000000E-01   0.00000000000000E+00   0.00000000000000E+00   1.25112704160753E-15
     -3.27102780586007E-18   1.24785601380167E-15   3.52898234063847E-15   0.00000000000000E+00   0.00000000000000E+00
      0.00000000000000E+00   0.00000000000000E+00  -1.03631509106603E-18  -6.89618046719614E-17  -6.99981197630274E-17
     -1.56561498203282E-15  -4.00000000000000E+00  -4.00000000000000E+00   0.00000000000000E+00   0.00000000000000E+00
     -2.29538749905603E-17  -1.15490401904808E-15  -1.17785789403864E-15  -1.96336735860565E-15
      9.00000000000000E-02
      8.00000000000000E-01   8.00000000000000E-01   0.00000000000000E+00   0.00000000000000E+00   1.28073504275286E-15
     -3.75003743773327E-18   1.27698500531513E-15   3.52317554661842E-15   0.00000000000000E+00   0.00000000000000E+00
      0.00000000000000E+00   0.00000000000000E+00  -1.03631191802109E-18  -7.26274479078586E-17  -7.36637598258797E-17
     -1.55435524232015E-15  -4.50000000000000E+00  -4.50000000000000E+00   0.00000000000000E+00   0.00000000000000E+00
     -2.29540570313186E-17  -1.18036718845793E-15  -1.20332124548925E-15  -1.96882030429827E-15
      1.00000000000000E-01
      8.00000000000000E-01   8.00000000000000E-01   0.00000000000000E+00   0.00000000000000E+00   1.30230599291020E-15
     -4.88573715620518E-19   1.30181741919458E-15   3.51636125636642E-15   0.00000000000000E+00   0.00000000000000E+00
      0.00000000000000E+00   0.00000000000000E+00  -1.03630851079139E-18  -7.59018640368490E-17  -7.69381725476404E-17
     -1.54185074210212E-15  -5.00000000000000E+00  -5.00000000000000E+00   0.00000000000000E+00   0.00000000000000E+00
     -2.29542472785947E-17  -1.20192499936835E-15  -1.22487924664695E-15  -1.97451051426430E-15
      1.10000000000000E-01
      8.00000000000000E-01   8.00000000000000E-01   0.00000000000000E+00   0.00000000000000E+00   1.31700429644832E-15
      1.33746122066707E-18   1.31834175766899E-15   3.50884110104321E-15   0.00000000000000E+00   0.00000000000000E+00
      0.00000000000000E+00   0.00000000000000E+00  -1.03630495136390E-18  -7.77849356148982E-17  -7.88212405662621E-17
     -1.52839849104900E-15  -5.50000000000000E+00  -5.50000000000000E+00   0.00000000000000E+00   0.00000000000000E+00
     -2.29544459077055E-17  -1.21656607119502E-15  -1.23952051710273E-15  -1.98044260999420E-15
      1.20000000000000E-01
      8.00000000000000E-01   8.00000000000000E-01   0.00000000000000E+00   0.00000000000000E+00   1.32707077091842E-15
      4.03560487049809E-18   1.33110637578892E-15   3.50078093999779E-15   0.00000000000000E+00   0.00000000000000E+00
      0.00000000000000E+00   0.00000000000000E+00  -1.03630128031476E-18  -7.84363396721712E-17  -7.94726409524860E-17
     -1.51416345427643E-15  -6.00000000000000E+00  -6.00000000000000E+00   0.00000000000000E+00   0.00000000000000E+00
     -2.29546529710411E-17  -1.22867908186539E-15  -1.25163373483644E-15  -1.98661748572135E-15
      1.30000000000000E-01
      8.00000000000000E-01   8.00000000000000E-01   0.00000000000000E+00   0.00000000000000E+00   1.33444640584018E-15
      5.99615649517808E-18   1.34044256233535E-15   3.49227734617472E-15   0.00000000000000E+00   0.00000000000000E+00
      0.00000000000000E+00   0.00000000000000E+00  -1.03629751967334E-18  -7.83597372157685E-17  -7.93960347354418E-17
     -1.49924306314905E-15  -6.50000000000000E+00  -6.50000000000000E+00   0.00000000000000E+00   0.00000000000000E+00
     -2.29548684634229E-17  -1.23809165913649E-15  -1.26104652759991E-15  -1.99303428302567E-15
      1.40000000000000E-01
      8.00000000000000E-01   8.00000000000000E-01   0.00000000000000E+00   0.00000000000000E+00   1.34023523496381E-15
      8.47329153974066E-18   1.34870852650355E-15   3.48339057203698E-15   0.00000000000000E+00   0.00000000000000E+00
      0.00000000000000E+00   0.00000000000000E+00  -1.03629368287601E-18  -7.79871939636599E-17  -7.90234876465359E-17
     -1.48369925155177E-15  -7.00000000000000E+00  -7.00000000000000E+00   0.00000000000000E+00   0.00000000000000E+00
     -2.29550923528975E-17  -1.24672994650412E-15  -1.26968503885702E-15  -1.99969132048521E-15
      1.50000000000000E-01
      8.00000000000000E-01   8.00000000000000E-01   0.00000000000000E+00   0.00000000000000E+00   1.34498429061011E-15
     -4.66973581882627E-18   1.34031455479128E-15   3.47416019567713E-15   0.00000000000000E+00   0.00000000000000E+00
      0.00000000000000E+00   0.00000000000000E+00  -1.03628977898870E-18  -7.73272438453156E-17  -7.83635336243043E-17
     -1.46757366248581E-15  -7.50000000000000E+00  -7.50000000000000E+00   0.00000000000000E+00   0.00000000000000E+00
     -2.29553245953112E-17  -1.23899569657167E-15  -1.26195102116698E-15  -2.00658653319132E-15
      1.60000000000000E-01
      8.00000000000000E-01   8.00000000000000E-01   0.00000000000000E+00   0.00000000000000E+00   1.34896544371135E-15
     -3.79431198152770E-18   1.34517113172983E-15   3.46461294305786E-15   0.00000000000000E+00   0.00000000000000E+00
      0.00000000000000E+00   0.00000000000000E+00  -1.03628581462435E-18  -7.64822368063926E-17  -7.75185226210170E-17
     -1.45089524971107E-15  -8.00000000000000E+00  -8.00000000000000E+00   0.00000000000000E+00   0.00000000000000E+00
     -2.29555651416214E-17  -1.24469704396719E-15  -1.26765260910881E-15  -2.01371769334679E-15
      1.70000000000000E-01
      8.00000000000000E-01   8.00000000000000E-01   0.00000000000000E+00   0.00000000000000E+00   1.35233616271952E-15
     -7.00065810129248E-18   1.34533550461823E-15   3.45476692308904E-15   0.00000000000000E+00   0.00000000000000E+00
      0.00000000000000E+00   0.00000000000000E+00  -1.03628179490589E-18  -7.55490850956274E-17  -7.65853668905333E-17
     -1.43368439429660E-15  -8.50000000000000E+00  -8.50000000000000E+00   0.00000000000000E+00   0.00000000000000E+00
     -2.29558139418252E-17  -1.24579432378587E-15  -1.26875013772769E-15  -2.02108252879244E-15
      1.80000000000000E-01
      8.00000000000000E-01   8.00000000000000E-01   0.00000000000000E+00   0.00000000000000E+00   1.35521169737751E-15
     -2.63716415082603E-18   1.35257453322669E-15   3.44463410823258E-15   0.00000000000000E+00   0.00000000000000E+00
      0.00000000000000E+00   0.00000000000000E+00  -1.03627772400044E-18  -7.44402808889942E-17  -7.54765586129946E-17
     -1.41595531870402E-15  -9.00000000000000E+00  -9.00000000000000E+00   0.00000000000000E+00   0.00000000000000E+00
     -2.29560709471738E-17  -1.25414190366652E-15  -1.27709797461369E-15  -2.02867878952857E-15
      1.90000000000000E-01
      8.00000000000000E-01   8.00000000000000E-01   0.00000000000000E+00   0.00000000000000E+00   1.35767632646749E-15
     -1.98743355184122E-18   1.35568889291565E-15   3.43422192659178E-15   0.00000000000000E+00   0.00000000000000E+00
      0.00000000000000E+00   0.00000000000000E+00  -1.03627360544479E-18  -7.31649504595774E-17  -7.42012240650222E-17
     -1.39771764024831E-15  -9.50000000000000E+00  -9.50000000000000E+00   0.00000000000000E+00   0.00000000000000E+00
     -2.29563361114527E-17  -1.25853133273917E-15  -1.28148766885062E-15  -2.03650428634348E-15
      2.00000000000000E-01
      8.00000000000000E-01   8.00000000000000E-01   0.00000000000000E+00   0.00000000000000E+00   1.35980660538352E-15
     -1.59317854944230E-18   1.35821342683407E-15   3.42353449026264E-15   0.00000000000000E+00   0.00000000000000E+00
      0.00000000000000E+00   0.00000000000000E+00  -1.03626944237051E-18  -7.14830032970373E-17  -7.25192727394078E-17
     -1.37897757274933E-15  -1.00000000000000E+01  -1.00000000000000E+01   0.00000000000000E+00   0.00000000000000E+00
     -2.29566093918866E-17  -1.26273754470278E-15  -1.28569415409467E-15  -2.04455691751331E-15
      2.10000000000000E-01
      8.00000000000000E-01   8.00000000000000E-01   0.00000000000000E+00   0.00000000000000E+00   1.36168394818163E-15
      1.75424431280466E-18   1.36343819249443E-15   3.41257389564443E-15   0.00000000000000E+00   0.00000000000000E+00
      0.00000000000000E+00   0.00000000000000E+00  -1.03626523769498E-18  -6.84353018122456E-17  -6.94715670499406E-17
     -1.35973919782940E-15  -1.05000000000000E+01  -1.05000000000000E+01   0.00000000000000E+00   0.00000000000000E+00
     -2.29568907501178E-17  -1.27100973469438E-15  -1.29396662544449E-15  -2.05283469781504E-15
      2.20000000000000E-01
      8.00000000000000E-01   8.00000000000000E-01   0.00000000000000E+00   0.00000000000000E+00   1.36336786422515E-15
     -7.27783277270309E-19   1.36264008094788E-15   3.40134202549993E-15   0.00000000000000E+00   0.00000000000000E+00
      0.00000000000000E+00   0.00000000000000E+00  -1.03626099432355E-18  -6.09451990696422E-17  -6.19814600639658E-17
     -1.34000622207348E-15  -1.10000000000000E+01  -1.10000000000000E+01   0.00000000000000E+00   0.00000000000000E+00
     -2.29571801537475E-17  -1.27770144073016E-15  -1.30065862088391E-15  -2.06133580342645E-15
      2.30000000000000E-01
      8.00000000000000E-01   8.00000000000000E-01   0.00000000000000E+00   0.00000000000000E+00   1.36490046928160E-15
     -2.91155461740576E-18   1.36198891466419E-15   3.38984324436589E-15   0.00000000000000E+00   0.00000000000000E+00
      0.00000000000000E+00   0.00000000000000E+00  -1.03625671539023E-18  -3.81766069705866E-17  -3.92128636859769E-17
     -1.31978460104384E-15  -1.15000000000000E+01  -1.15000000000000E+01   0.00000000000000E+00   0.00000000000000E+00
     -2.29574775787960E-17  -1.29981857339942E-15  -1.32277605097822E-15  -2.07005864332204E-15
      2.40000000000000E-01
      8.00000000000000E-01   8.00000000000000E-01   0.00000000000000E+00   0.00000000000000E+00   1.36631336370727E-15
     -1.20141309108404E-18   1.36511195061618E-15   3.37808813673648E-15   0.00000000000000E+00   0.00000000000000E+00
      0.00000000000000E+00   0.00000000000000E+00  -1.03625240453286E-18   3.69076505048137E-17   3.58713981002809E-17
     -1.29908617888019E-15  -1.20000000000000E+01  -1.20000000000000E+01   0.00000000000000E+00   0.00000000000000E+00
     -2.29577830131158E-17  -1.37802556570335E-15  -1.40098334871646E-15  -2.07900195785630E-15
      2.50000000000000E-01
      8.00000000000000E-01   8.00000000000000E-01   0.00000000000000E+00   0.00000000000000E+00   1.36762718467860E-15
     -6.73039534224739E-18   1.36089678933636E-15   3.36609777690865E-15   0.00000000000000E+00   0.00000000000000E+00
      0.00000000000000E+00   0.00000000000000E+00  -1.03624806614237E-18   2.87028487937739E-16   2.85992239871597E-16
     -1.27793285355173E-15  -1.25000000000000E+01  -1.25000000000000E+01   0.00000000000000E+00   0.00000000000000E+00
     -2.29580964600561E-17  -1.62393093274789E-15  -1.64688902920795E-15  -2.08816492335692E-15
      2.60000000000000E-01
      8.00000000000000E-01   8.00000000000000E-01   0.00000000000000E+00   0.00000000000000E+00   1.36884961361797E-15
     -2.19804274310802E-17   1.34686918618689E-15   3.35390698893605E-15   0.00000000000000E+00   0.00000000000000E+00
      0.00000000000000E+00   0.00000000000000E+00  -1.03624370545923E-18   1.10923585324169E-15   1.10819960953623E-15
     -1.25635977681459E-15  -1.30000000000000E+01  -1.30000000000000E+01   0.00000000000000E+00   0.00000000000000E+00
     -2.29584179406235E-17  -2.43211037778250E-15  -2.45506879572312E-15  -2.09754721212146E-15
      2.70000000000000E-01
      8.00000000000000E-01   8.00000000000000E-01   0.00000000000000E+00   0.00000000000000E+00   1.36997419101121E-15
      1.84439820124586E-17   1.38841817302367E-15   3.34156445201970E-15   0.00000000000000E+00   0.00000000000000E+00
      0.00000000000000E+00   0.00000000000000E+00  -1.03623932836587E-18   3.75093134346773E-15   3.74989510413937E-15
     -1.23441550551923E-15  -1.35000000000000E+01  -1.35000000000000E+01   0.00000000000000E+00   0.00000000000000E+00
     -2.29587474920497E-17  -5.11535452967099E-15  -5.13831327716304E-15  -2.10714894650047E-15
      2.80000000000000E-01
      8.00000000000000E-01   8.00000000000000E-01   0.00000000000000E+00   0.00000000000000E+00   1.37098060873095E-15
      5.88794762942998E-18   1.37686855636038E-15   3.32912855955426E-15   0.00000000000000E+00   0.00000000000000E+00
      0.00000000000000E+00   0.00000000000000E+00  -1.03623494075865E-18   1.20070213813382E-14   1.20059851463975E-14
     -1.21215803254800E-15  -1.40000000000000E+01  -1.40000000000000E+01   0.00000000000000E+00   0.00000000000000E+00
     -2.29590851619967E-17  -1.33598946175959E-14  -1.33828537027579E-14  -2.11697052700626E-15
      2.90000000000000E-01
      8.00000000000000E-01   8.00000000000000E-01   0.00000000000000E+00   0.00000000000000E+00   1.37183394835239E-15
     -8.36615324155136E-18   1.36346779511084E-15   3.31666050585145E-15   0.00000000000000E+00   0.00000000000000E+00
      0.00000000000000E+00   0.00000000000000E+00  -1.03623054718197E-18   3.70376009708961E-14   3.70365647403490E-14
     -1.18964811216906E-15  -1.45000000000000E+01  -1.45000000000000E+01   0.00000000000000E+00   0.00000000000000E+00
     -2.29594310004256E-17  -3.83770731044594E-14  -3.84000325354599E-14  -2.12701239368239E-15
      3.00000000000000E-01
      8.00000000000000E-01   8.00000000000000E-01   0.00000000000000E+00   0.00000000000000E+00   1.37247640066422E-15
     -2.07333353970887E-17   1.35174306526713E-15   3.30421784126163E-15   0.00000000000000E+00   0.00000000000000E+00
      0.00000000000000E+00   0.00000000000000E+00  -1.03622614687917E-18   1.10500605167762E-13   1.10499568941615E-13
     -1.16694301657581E-15  -1.50000000000000E+01  -1.50000000000000E+01   0.00000000000000E+00   0.00000000000000E+00
     -2.29597850526579E-17  -1.11828352221830E-13  -1.11851312006882E-13  -2.13727482468581E-15
      3.10000000000000E-01
      8.00000000000000E-01   8.00000000000000E-01   0.00000000000000E+00   0.00000000000000E+00   1.37280215940420E-15
      2.13665780583407E-17   1.39416873746254E-15   3.29185097890673E-15   0.00000000000000E+00   0.00000000000000E+00
      0.00000000000000E+00   0.00000000000000E+00  -1.03622171944200E-18   3.18882269406718E-13   3.18881233184999E-13
     -1.14409313349581E-15  -1.55000000000000E+01  -1.55000000000000E+01   0.00000000000000E+00   0.00000000000000E+00
     -2.29601473561939E-17  -3.20252441775105E-13  -3.20275401922461E-13  -2.14775784541091E-15
      3.20000000000000E-01
      8.00000000000000E-01   8.00000000000000E-01   0.00000000000000E+00   0.00000000000000E+00   1.37259827121112E-15
     -1.21578845041888E-18   1.37138248276070E-15   3.27960304121214E-15   0.00000000000000E+00   0.00000000000000E+00
      0.00000000000000E+00   0.00000000000000E+00  -1.03621717403389E-18   8.89358998310408E-13   8.89357962093234E-13
     -1.12114177717865E-15  -1.60000000000000E+01  -1.60000000000000E+01   0.00000000000000E+00   0.00000000000000E+00
     -2.29605179418797E-17  -8.90706384058052E-13  -8.90729344575994E-13  -2.15846126403349E-15
      3.30000000000000E-01
      8.00000000000000E-01   8.00000000000000E-01   0.00000000000000E+00   0.00000000000000E+00   1.37141235011280E-15
      1.15048772959004E-18   1.37256283784239E-15   3.26751210347476E-15   0.00000000000000E+00   0.00000000000000E+00
      0.00000000000000E+00   0.00000000000000E+00  -1.03621170714255E-18   2.39471079914276E-12   2.39470976293105E-12
     -1.09812727142165E-15  -1.65000000000000E+01  -1.65000000000000E+01   0.00000000000000E+00   0.00000000000000E+00
     -2.29608968394538E-17  -2.39605936487205E-12  -2.39608232576889E-12  -2.16938483205312E-15
      3.40000000000000E-01
      8.00000000000000E-01   8.00000000000000E-01   0.00000000000000E+00   0.00000000000000E+00   1.36827532781242E-15
     -6.69580154072090E-18   1.36157952627170E-15   3.25561487447439E-15   0.00000000000000E+00   0.00000000000000E+00
      0.00000000000000E+00   0.00000000000000E+00  -1.03620574445620E-18   6.21831828082145E-12   6.21831724461570E-12
     -1.07508630487151E-15  -1.70000000000000E+01  -1.70000000000000E+01   0.00000000000000E+00   0.00000000000000E+00
     -2.29612840889130E-17  -6.21965586285790E-12  -6.21967882414199E-12  -2.18052856960289E-15
      3.50000000000000E-01
      8.00000000000000E-01   8.00000000000000E-01   0.00000000000000E+00   0.00000000000000E+00   1.36118212174947E-15
     -3.64842713105676E-18   1.35753369461841E-15   3.24395150150963E-15   0.00000000000000E+00   0.00000000000000E+00
      0.00000000000000E+00   0.00000000000000E+00  -1.03619541026356E-18   1.55523992026983E-11   1.55523981665029E-11
     -1.05205811795922E-15  -1.75000000000000E+01  -1.75000000000000E+01   0.00000000000000E+00   0.00000000000000E+00
     -2.29616797622952E-17  -1.55537327385178E-11  -1.55537557001975E-11  -2.19189338355040E-15
      3.60000000000000E-01
      8.00000000000000E-01   8.00000000000000E-01   0.00000000000000E+00   0.00000000000000E+00   1.34630116513831E-15
     -1.39125243584976E-17   1.33238864077981E-15   3.23257187230782E-15   0.00000000000000E+00   0.00000000000000E+00