DF-ISE text

Info {
  version   = 1.0
  type      = xyplot
  datasets  = [
    "time"
    "Ntop OuterVoltage" "Ntop InnerVoltage" "Ntop QuasiFermiPotential" "Ntop DisplacementCurrent" "Ntop eCurrent"
    "Ntop hCurrent" "Ntop TotalCurrent" "Ntop Charge" "Ptop OuterVoltage" "Ptop InnerVoltage"
    "Ptop QuasiFermiPotential" "Ptop DisplacementCurrent" "Ptop eCurrent" "Ptop hCurrent" "Ptop TotalCurrent"
    "Ptop Charge" "Pbot OuterVoltage" "Pbot InnerVoltage" "Pbot QuasiFermiPotential" "Pbot DisplacementCurrent"
    "Pbot eCurrent" "Pbot hCurrent" "Pbot TotalCurrent" "Pbot Charge" ]
  functions = [
    Time
    OuterVoltage InnerVoltage QuasiFermiPotential DisplacementCurrent eCurrent
    hCurrent TotalCurrent Charge OuterVoltage InnerVoltage
    QuasiFermiPotential DisplacementCurrent eCurrent hCurrent TotalCurrent
    Charge OuterVoltage InnerVoltage QuasiFermiPotential DisplacementCurrent
    eCurrent hCurrent TotalCurrent Charge ]
}

Data {
      0.00000000000000E+00
      0.00000000000000E+00   0.00000000000000E+00   0.00000000000000E+00   0.00000000000000E+00  -1.74170685518646E-25
     -4.60275466587493E-18  -4.60275484004561E-18   2.81992101070287E-15   0.00000000000000E+00   0.00000000000000E+00
      0.00000000000000E+00   0.00000000000000E+00   1.74174908341820E-25   2.45964675440459E-19   2.45964849615368E-19
     -9.02217829671118E-16   0.00000000000000E+00   0.00000000000000E+00   0.00000000000000E+00   0.00000000000000E+00
     -4.23928785688686E-30   4.35678999043448E-18   4.35678999043024E-18  -1.91770318103175E-15
      0.00000000000000E+00
      0.00000000000000E+00   0.00000000000000E+00   0.00000000000000E+00   0.00000000000000E+00  -1.74001770005120E-26
      2.05972914019629E-18   2.05972912279611E-18   2.81992101080625E-15   0.00000000000000E+00   0.00000000000000E+00
      0.00000000000000E+00   0.00000000000000E+00   1.73997341628257E-26   5.72242120355354E-21   5.72243860328770E-21
     -9.02217829671127E-16   0.00000000000000E+00   0.00000000000000E+00   0.00000000000000E+00   0.00000000000000E+00
      9.41871592465154E-31  -2.06545156140034E-18  -2.06545156139940E-18  -1.91770318113512E-15
      1.00000000000000E-01
      8.00000000000000E-02   8.00000000000000E-02   0.00000000000000E+00   0.00000000000000E+00   1.47849082854711E-16
      3.68336574296792E-19   1.48217419429008E-16   2.87770937363391E-15   0.00000000000000E+00   0.00000000000000E+00
      0.00000000000000E+00   0.00000000000000E+00  -9.93452214794051E-19  -1.16779447821366E-17  -1.26713969969307E-17
     -9.59263395106257E-16   0.00000000000000E+00   0.00000000000000E+00   0.00000000000000E+00   0.00000000000000E+00
     -2.28396109809073E-17  -1.12706411451170E-16  -1.35546022432077E-16  -1.91844597852765E-15
      2.00000000000000E-01
      1.60000000000000E-01   1.60000000000000E-01   0.00000000000000E+00   0.00000000000000E+00   2.12036696700603E-16
      1.44561452003373E-19   2.12181258152607E-16   2.93252508951408E-15   0.00000000000000E+00   0.00000000000000E+00
      0.00000000000000E+00   0.00000000000000E+00  -1.03470551694475E-18  -1.81394321789266E-17  -1.91741376958713E-17
     -1.01333662314087E-15   0.00000000000000E+00   0.00000000000000E+00   0.00000000000000E+00   0.00000000000000E+00
     -2.29524633409630E-17  -1.70054657115772E-16  -1.93007120456735E-16  -1.91918846637322E-15
      3.00000000000000E-01
      2.40000000000000E-01   2.40000000000000E-01   0.00000000000000E+00   0.00000000000000E+00   2.64052497617523E-16
      4.39728031495809E-19   2.64492225649019E-16   2.98487694043246E-15   0.00000000000000E+00   0.00000000000000E+00
      0.00000000000000E+00   0.00000000000000E+00  -1.03625269274202E-18  -2.36644933756847E-17  -2.47007460684267E-17
     -1.06494606712682E-15   0.00000000000000E+00   0.00000000000000E+00   0.00000000000000E+00   0.00000000000000E+00
     -2.29524423937242E-17  -2.16839037186867E-16  -2.39791479580592E-16  -1.91993087330564E-15
      4.00000000000000E-01
      3.20000000000000E-01   3.20000000000000E-01   0.00000000000000E+00   0.00000000000000E+00   3.10126771312087E-16
      4.83545500836613E-19   3.10610316812924E-16   3.03511725287929E-15   0.00000000000000E+00   0.00000000000000E+00
      0.00000000000000E+00   0.00000000000000E+00  -1.03630726599971E-18  -2.88071789536397E-17  -2.98434862196394E-17
     -1.11444403709732E-15   0.00000000000000E+00   0.00000000000000E+00   0.00000000000000E+00   0.00000000000000E+00
     -2.29524636556243E-17  -2.57814366937660E-16  -2.80766830593284E-16  -1.92067321578197E-15
      5.00000000000000E-01
      4.00000000000000E-01   4.00000000000000E-01   0.00000000000000E+00   0.00000000000000E+00   3.52361668694672E-16
      2.11898529843762E-19   3.52573567224515E-16   3.08348855564022E-15   0.00000000000000E+00   0.00000000000000E+00
      0.00000000000000E+00   0.00000000000000E+00  -1.03631713110756E-18  -3.36139841345918E-17  -3.46503012656994E-17
     -1.16207312654514E-15   0.00000000000000E+00   0.00000000000000E+00   0.00000000000000E+00   0.00000000000000E+00
     -2.29524876671536E-17  -2.94970778291662E-16  -3.17923265958816E-16  -1.92141542909509E-15
      6.00000000000000E-01
      4.80000000000000E-01   4.80000000000000E-01   0.00000000000000E+00   0.00000000000000E+00   3.91913469276452E-16
      3.75167714444861E-19   3.92288636990897E-16   3.13014939903708E-15   0.00000000000000E+00   0.00000000000000E+00
      0.00000000000000E+00   0.00000000000000E+00  -1.03632595142883E-18  -3.82165281349414E-17  -3.92528540863702E-17
     -1.20799197222401E-15   0.00000000000000E+00   0.00000000000000E+00   0.00000000000000E+00   0.00000000000000E+00
     -2.29525117995454E-17  -3.30083271104981E-16  -3.53035782904527E-16  -1.92215742681308E-15
      7.00000000000000E-01
      5.60000000000000E-01   5.60000000000000E-01   0.00000000000000E+00   0.00000000000000E+00   4.29415879117987E-16
     -5.22231559481254E-19   4.28893647558506E-16   3.17518773099444E-15   0.00000000000000E+00   0.00000000000000E+00
      0.00000000000000E+00   0.00000000000000E+00  -1.03633428595706E-18  -4.27103596882044E-17  -4.37466939741614E-17
     -1.25228860542173E-15   0.00000000000000E+00   0.00000000000000E+00   0.00000000000000E+00   0.00000000000000E+00
     -2.29525359631648E-17  -3.62194417621180E-16  -3.85146953584345E-16  -1.92289912557271E-15
      8.00000000000000E-01
      6.40000000000000E-01   6.40000000000000E-01   0.00000000000000E+00   0.00000000000000E+00   4.65189147014468E-16
      7.20624156049786E-19   4.65909771170518E-16   3.21862804175280E-15   0.00000000000000E+00   0.00000000000000E+00
      0.00000000000000E+00   0.00000000000000E+00  -1.03634230776329E-18  -4.70989317800764E-17  -4.81352740878397E-17
     -1.29498758840124E-15   0.00000000000000E+00   0.00000000000000E+00   0.00000000000000E+00   0.00000000000000E+00
     -2.29525601478725E-17  -3.94821936934806E-16  -4.17774497082679E-16  -1.92364045335156E-15
      9.00000000000000E-01
      7.20000000000000E-01   7.20000000000000E-01   0.00000000000000E+00   0.00000000000000E+00   4.99466704287161E-16
      2.79215075993279E-19   4.99745919363154E-16   3.26044061980165E-15   0.00000000000000E+00   0.00000000000000E+00
      0.00000000000000E+00   0.00000000000000E+00  -1.03634986978994E-18  -5.15132974901028E-17  -5.25496473598927E-17
     -1.33605927048391E-15   0.00000000000000E+00   0.00000000000000E+00   0.00000000000000E+00   0.00000000000000E+00
     -2.29525843477667E-17  -4.24243687655494E-16  -4.47196272003261E-16  -1.92438134931775E-15
      1.00000000000000E+00
      8.00000000000000E-01   8.00000000000000E-01   0.00000000000000E+00   0.00000000000000E+00   5.32467834436970E-16
     -2.31585922590577E-19   5.32236248514380E-16   3.30056711873186E-15   0.00000000000000E+00   0.00000000000000E+00
      0.00000000000000E+00   0.00000000000000E+00  -1.03635688507773E-18  -5.60340635935611E-17  -5.70704204786388E-17
     -1.37544536085788E-15   0.00000000000000E+00   0.00000000000000E+00   0.00000000000000E+00   0.00000000000000E+00
     -2.29526085579592E-17  -4.52213219477782E-16  -4.75165828035741E-16  -1.92512175787398E-15
      0.00000000000000E+00
      8.00000000000000E-01   8.00000000000000E-01   0.00000000000000E+00   0.00000000000000E+00   5.32467834475923E-16
      2.58870866124114E-19   5.32726705342047E-16   3.30056711873186E-15   0.00000000000000E+00   0.00000000000000E+00
      0.00000000000000E+00   0.00000000000000E+00  -1.03635692403154E-18  -5.60404336062751E-17  -5.70767905303066E-17
     -1.37544536085788E-15   0.00000000000000E+00   0.00000000000000E+00   0.00000000000000E+00   0.00000000000000E+00
     -2.29526085579591E-17  -4.52697306253782E-16  -4.75649914811741E-16  -1.92512175787398E-15
      1.00000000000000E-02
      8.00000000000000E-01   8.00000000000000E-01   0.00000000000000E+00   0.00000000000000E+00   6.87072863705146E-16
     -2.94332042623244E-18   6.84129543278913E-16   3.30517313431259E-15   0.00000000000000E+00   0.00000000000000E+00
      0.00000000000000E+00   0.00000000000000E+00  -1.03635691999056E-18  -5.55157898681580E-17  -5.65521467881486E-17
     -1.37543479721975E-15  -5.00000000000000E-01  -5.00000000000000E-01   0.00000000000000E+00   0.00000000000000E+00
     -2.29527595527848E-17  -6.04624636937980E-16  -6.27577396490765E-16  -1.92973833709285E-15
      2.00000000000000E-02
      8.00000000000000E-01   8.00000000000000E-01   0.00000000000000E+00   0.00000000000000E+00   8.15390068199143E-16
     -1.31848830063175E-18   8.14071579898512E-16   3.30972508020300E-15   0.00000000000000E+00   0.00000000000000E+00
      0.00000000000000E+00   0.00000000000000E+00  -1.03635690177272E-18  -5.50973474909756E-17  -5.61337043927483E-17
     -1.37538717849490E-15  -1.00000000000000E+00  -1.00000000000000E+00   0.00000000000000E+00   0.00000000000000E+00
     -2.29529114375474E-17  -7.34984964068216E-16  -7.57937875505763E-16  -1.93433790170810E-15
      3.00000000000000E-02
      8.00000000000000E-01   8.00000000000000E-01   0.00000000000000E+00   0.00000000000000E+00   9.25773922607089E-16
     -1.29109660270014E-19   9.25644812946819E-16   3.31414727902481E-15   0.00000000000000E+00   0.00000000000000E+00
      0.00000000000000E+00   0.00000000000000E+00  -1.03635683533044E-18  -5.48891037689551E-17  -5.59254606042856E-17
     -1.37521351433013E-15  -1.50000000000000E+00  -1.50000000000000E+00   0.00000000000000E+00   0.00000000000000E+00
     -2.29530632078373E-17  -8.46766289134695E-16  -8.69719352342532E-16  -1.93893376469467E-15
      4.00000000000000E-02
      8.00000000000000E-01   8.00000000000000E-01   0.00000000000000E+00   0.00000000000000E+00   1.01701061808152E-15
      8.62972977690770E-19   1.01787359105921E-15   3.31827838162144E-15   0.00000000000000E+00   0.00000000000000E+00
      0.00000000000000E+00   0.00000000000000E+00  -1.03635664080360E-18  -5.48077052956874E-17  -5.58440619364910E-17
     -1.37470482362333E-15  -2.00000000000000E+00  -2.00000000000000E+00   0.00000000000000E+00   0.00000000000000E+00
     -2.29532167834933E-17  -9.39076312339228E-16  -9.62029529122721E-16  -1.94357355799810E-15
      5.00000000000000E-02
      8.00000000000000E-01   8.00000000000000E-01   0.00000000000000E+00   0.00000000000000E+00   1.08890664675993E-15
      4.17308907835457E-18   1.09307973583828E-15   3.32182092297829E-15   0.00000000000000E+00   0.00000000000000E+00
      0.00000000000000E+00   0.00000000000000E+00  -1.03635618078158E-18  -5.49585980712539E-17  -5.59949542520355E-17
     -1.37349915443690E-15  -2.50000000000000E+00  -2.50000000000000E+00   0.00000000000000E+00   0.00000000000000E+00
     -2.29533742615030E-17  -1.01413140732474E-15  -1.03708478158624E-15  -1.94832176854138E-15
      6.00000000000000E-02
      8.00000000000000E-01   8.00000000000000E-01   0.00000000000000E+00   0.00000000000000E+00   1.14545607056067E-15
     -7.24849577426630E-18   1.13820757478640E-15   3.32437770531629E-15   0.00000000000000E+00   0.00000000000000E+00
      0.00000000000000E+00   0.00000000000000E+00  -1.03635528847047E-18  -5.53672724303612E-17  -5.64036277188317E-17
     -1.37114658301656E-15  -3.00000000000000E+00  -3.00000000000000E+00   0.00000000000000E+00   0.00000000000000E+00
     -2.29535373778942E-17  -1.05885040968968E-15  -1.08180394706757E-15  -1.95323112229972E-15
      7.00000000000000E-02
      8.00000000000000E-01   8.00000000000000E-01   0.00000000000000E+00   0.00000000000000E+00   1.18989520648456E-15
      2.60364254702699E-18   1.19249884903158E-15   3.32562511319823E-15   0.00000000000000E+00   0.00000000000000E+00
      0.00000000000000E+00   0.00000000000000E+00  -1.03635384281159E-18  -5.61829621249855E-17  -5.72193159677971E-17
     -1.36728682935345E-15  -3.50000000000000E+00  -3.50000000000000E+00   0.00000000000000E+00   0.00000000000000E+00
     -2.29537073526556E-17  -1.11232582571113E-15  -1.13527953306379E-15  -1.95833828384478E-15
      8.00000000000000E-02
      8.00000000000000E-01   8.00000000000000E-01   0.00000000000000E+00   0.00000000000000E+00   1.22404680592605E-15
     -4.98873595609012E-18   1.21905806996996E-15   3.32550504491986E-15   0.00000000000000E+00   0.00000000000000E+00
      0.00000000000000E+00   0.00000000000000E+00  -1.03635184273058E-18  -5.75262957763259E-17  -5.85626476190565E-17
     -1.36183927667885E-15  -4.00000000000000E+00  -4.00000000000000E+00   0.00000000000000E+00   0.00000000000000E+00
     -2.29538849454576E-17  -1.13754153740545E-15  -1.16049542235091E-15  -1.96366576824102E-15
      9.00000000000000E-02
      8.00000000000000E-01   8.00000000000000E-01   0.00000000000000E+00   0.00000000000000E+00   1.25104941477358E-15
     -1.11504165010710E-19   1.25093791060857E-15   3.32424138057125E-15   0.00000000000000E+00   0.00000000000000E+00
      0.00000000000000E+00   0.00000000000000E+00  -1.03634939815905E-18  -5.95108470358580E-17  -6.05471964340170E-17
     -1.35501338736800E-15  -4.50000000000000E+00  -4.50000000000000E+00   0.00000000000000E+00   0.00000000000000E+00
     -2.29540706525508E-17  -1.16743664352200E-15  -1.19039071417455E-15  -1.96922799320326E-15
      1.00000000000000E-01
      8.00000000000000E-01   8.00000000000000E-01   0.00000000000000E+00   0.00000000000000E+00   1.27263242704495E-15
      5.24929897310782E-18   1.27788172601805E-15   3.32214217530674E-15   0.00000000000000E+00   0.00000000000000E+00
      0.00000000000000E+00   0.00000000000000E+00  -1.03634664005749E-18  -6.19811145015777E-17  -6.30174611416352E-17
     -1.34710824054012E-15  -5.00000000000000E+00  -5.00000000000000E+00   0.00000000000000E+00   0.00000000000000E+00
     -2.29542647928336E-17  -1.19191000008359E-15  -1.21486426487642E-15  -1.97503393476663E-15
      1.10000000000000E-01
      8.00000000000000E-01   8.00000000000000E-01   0.00000000000000E+00   0.00000000000000E+00   1.28959669859080E-15
      2.08072082434999E-18   1.29167741941515E-15   3.31944854367836E-15   0.00000000000000E+00   0.00000000000000E+00
      0.00000000000000E+00   0.00000000000000E+00  -1.03634366309439E-18  -6.43304672387434E-17  -6.53668109018377E-17
     -1.33836056478576E-15  -5.50000000000000E+00  -5.50000000000000E+00   0.00000000000000E+00   0.00000000000000E+00
     -2.29544675346697E-17  -1.20335614097865E-15  -1.22631060851332E-15  -1.98108797889259E-15
      1.20000000000000E-01
      8.00000000000000E-01   8.00000000000000E-01   0.00000000000000E+00   0.00000000000000E+00   1.30242698317120E-15
      4.75825373470425E-18   1.30718523690591E-15   3.31631608236539E-15   0.00000000000000E+00   0.00000000000000E+00
      0.00000000000000E+00   0.00000000000000E+00  -1.03634052448540E-18  -6.60040146684796E-17  -6.70403551929650E-17
     -1.32892473150325E-15  -6.00000000000000E+00  -6.00000000000000E+00   0.00000000000000E+00   0.00000000000000E+00
     -2.29546789425386E-17  -1.21719020277041E-15  -1.24014488171294E-15  -1.98739135086214E-15
      1.30000000000000E-01
      8.00000000000000E-01   8.00000000000000E-01   0.00000000000000E+00   0.00000000000000E+00   1.31209590829624E-15
      3.73489209671698E-18   1.31583080039295E-15   3.31284224710447E-15   0.00000000000000E+00   0.00000000000000E+00
      0.00000000000000E+00   0.00000000000000E+00  -1.03633725819519E-18  -6.68503033844724E-17  -6.78866406426676E-17
     -1.31889878198572E-15  -6.50000000000000E+00  -6.50000000000000E+00   0.00000000000000E+00   0.00000000000000E+00
     -2.29548990215200E-17  -1.22498926072877E-15  -1.24794415975029E-15  -1.99394346511876E-15
      1.40000000000000E-01
      8.00000000000000E-01   8.00000000000000E-01   0.00000000000000E+00   0.00000000000000E+00   1.31965219870894E-15
      1.30716843586170E-17   1.33272388306756E-15   3.30909044839427E-15   0.00000000000000E+00   0.00000000000000E+00
      0.00000000000000E+00   0.00000000000000E+00  -1.03633388551730E-18  -6.72302165492702E-17  -6.82665504347875E-17
     -1.30834766376975E-15  -7.00000000000000E+00  -7.00000000000000E+00   0.00000000000000E+00   0.00000000000000E+00
     -2.29551277457133E-17  -1.24150220488706E-15  -1.26445733263278E-15  -2.00074278462452E-15
      1.50000000000000E-01
      8.00000000000000E-01   8.00000000000000E-01   0.00000000000000E+00   0.00000000000000E+00   1.32579300474557E-15
      1.01835516796447E-17   1.33597655642521E-15   3.30510433589014E-15   0.00000000000000E+00   0.00000000000000E+00
      0.00000000000000E+00   0.00000000000000E+00  -1.03633042083572E-18  -6.72556048009409E-17  -6.82919352217766E-17
     -1.29731703881671E-15  -7.50000000000000E+00  -7.50000000000000E+00   0.00000000000000E+00   0.00000000000000E+00
     -2.29553650740007E-17  -1.24472925612944E-15  -1.26768462120344E-15  -2.00778729707342E-15
      1.60000000000000E-01
      8.00000000000000E-01   8.00000000000000E-01   0.00000000000000E+00   0.00000000000000E+00   1.33090978131011E-15
     -1.61039520487244E-18   1.32929938610524E-15   3.30091561665611E-15   0.00000000000000E+00   0.00000000000000E+00
      0.00000000000000E+00   0.00000000000000E+00  -1.03632687456882E-18  -6.70111326487343E-17  -6.80474595233031E-17
     -1.28584084540325E-15  -8.00000000000000E+00  -8.00000000000000E+00   0.00000000000000E+00   0.00000000000000E+00
     -2.29556109585454E-17  -1.23829631562339E-15  -1.26125192658193E-15  -2.01507477125286E-15
      1.70000000000000E-01
      8.00000000000000E-01   8.00000000000000E-01   0.00000000000000E+00   0.00000000000000E+00   1.33523339606572E-15
      9.91982917942938E-18   1.34515322524514E-15   3.29654840119352E-15   0.00000000000000E+00   0.00000000000000E+00
      0.00000000000000E+00   0.00000000000000E+00  -1.03632325470873E-18  -6.66854170927693E-17  -6.77217403474780E-17
     -1.27394550482151E-15  -8.50000000000000E+00  -8.50000000000000E+00   0.00000000000000E+00   0.00000000000000E+00
     -2.29558653494185E-17  -1.25447561954825E-15  -1.27743148489767E-15  -2.02260289637201E-15
      1.80000000000000E-01
      8.00000000000000E-01   8.00000000000000E-01   0.00000000000000E+00   0.00000000000000E+00   1.33892680160656E-15
      1.26403795061547E-17   1.35156718111271E-15   3.29202174268190E-15   0.00000000000000E+00   0.00000000000000E+00
      0.00000000000000E+00   0.00000000000000E+00  -1.03631956767348E-18  -6.62469143268703E-17  -6.72832338945437E-17
     -1.26165238385449E-15  -9.00000000000000E+00  -9.00000000000000E+00   0.00000000000000E+00   0.00000000000000E+00
     -2.29561281971282E-17  -1.26132781902104E-15  -1.28428394721817E-15  -2.03036935882740E-15
      1.90000000000000E-01
      8.00000000000000E-01   8.00000000000000E-01   0.00000000000000E+00   0.00000000000000E+00   1.34212566930647E-15
     -9.72696904988884E-18   1.33239870025658E-15   3.28735120518809E-15   0.00000000000000E+00   0.00000000000000E+00
      0.00000000000000E+00   0.00000000000000E+00  -1.03631581880972E-18  -6.56669273903533E-17  -6.67032432091631E-17
     -1.24897932118375E-15  -9.50000000000000E+00  -9.50000000000000E+00   0.00000000000000E+00   0.00000000000000E+00
     -2.29563994540248E-17  -1.24273905759339E-15  -1.26569545704742E-15  -2.03837188400434E-15
      2.00000000000000E-01
      8.00000000000000E-01   8.00000000000000E-01   0.00000000000000E+00   0.00000000000000E+00   1.34494906792275E-15
     -3.63469182898399E-19   1.34458559873985E-15   3.28254987715539E-15   0.00000000000000E+00   0.00000000000000E+00
      0.00000000000000E+00   0.00000000000000E+00  -1.03631201270571E-18  -6.49549741082946E-17  -6.59912861210003E-17
     -1.23594161994913E-15  -1.00000000000000E+01  -1.00000000000000E+01   0.00000000000000E+00   0.00000000000000E+00
     -2.29566790749850E-17  -1.25563763354386E-15  -1.27859431261885E-15  -2.04660825720627E-15
      2.10000000000000E-01
      8.00000000000000E-01   8.00000000000000E-01   0.00000000000000E+00   0.00000000000000E+00   1.34749003851408E-15
      6.95142696089062E-18   1.35444146547497E-15   3.27762904728802E-15   0.00000000000000E+00   0.00000000000000E+00
      0.00000000000000E+00   0.00000000000000E+00  -1.03630815339435E-18  -6.41391434785905E-17  -6.51754516319849E-17
     -1.22255271580369E-15  -1.05000000000000E+01  -1.05000000000000E+01   0.00000000000000E+00   0.00000000000000E+00
     -2.29569670176652E-17  -1.26630904682532E-15  -1.28926601384298E-15  -2.05507633148433E-15
      2.20000000000000E-01
      8.00000000000000E-01   8.00000000000000E-01   0.00000000000000E+00   0.00000000000000E+00   1.34980869039106E-15
      2.00006546592775E-17   1.36980934505034E-15   3.27259866617530E-15   0.00000000000000E+00   0.00000000000000E+00
      0.00000000000000E+00   0.00000000000000E+00  -1.03630424448859E-18  -6.29831506603865E-17  -6.40194549048751E-17
     -1.20882463886039E-15  -1.10000000000000E+01  -1.10000000000000E+01   0.00000000000000E+00   0.00000000000000E+00
     -2.29572632424943E-17  -1.28283262690297E-15  -1.30578989014547E-15  -2.06377402731492E-15
      2.30000000000000E-01
      8.00000000000000E-01   8.00000000000000E-01   0.00000000000000E+00   0.00000000000000E+00   1.35195729109327E-15
      6.49439652695738E-18   1.35845168762022E-15   3.26746767042618E-15   0.00000000000000E+00   0.00000000000000E+00
      0.00000000000000E+00   0.00000000000000E+00  -1.03630028927457E-18  -6.10166476424912E-17  -6.20529479317658E-17
     -1.19476834275466E-15  -1.15000000000000E+01  -1.15000000000000E+01   0.00000000000000E+00   0.00000000000000E+00
     -2.29575677124952E-17  -1.27344117197596E-15  -1.29639873968846E-15  -2.07269932767153E-15
      2.40000000000000E-01
      8.00000000000000E-01   8.00000000000000E-01   0.00000000000000E+00   0.00000000000000E+00   1.35398999545906E-15
      4.09917699550514E-18   1.35808917245456E-15   3.26224421990582E-15   0.00000000000000E+00   0.00000000000000E+00
      0.00000000000000E+00   0.00000000000000E+00  -1.03629629077775E-18  -5.64155779885402E-17  -5.74518742793179E-17
     -1.18039394881364E-15  -1.20000000000000E+01  -1.20000000000000E+01   0.00000000000000E+00   0.00000000000000E+00
     -2.29578803930456E-17  -1.27767941778220E-15  -1.30063729817525E-15  -2.08185027109219E-15
      2.50000000000000E-01
      8.00000000000000E-01   8.00000000000000E-01   0.00000000000000E+00   0.00000000000000E+00   1.35594262676111E-15
     -1.26579990828156E-17   1.34328462767830E-15   3.25693588195725E-15   0.00000000000000E+00   0.00000000000000E+00
      0.00000000000000E+00   0.00000000000000E+00  -1.03629225181190E-18  -4.35899133731716E-17  -4.46262056249835E-17
     -1.16571093742187E-15  -1.25000000000000E+01  -1.25000000000000E+01   0.00000000000000E+00   0.00000000000000E+00
     -2.29582012516290E-17  -1.27570022080168E-15  -1.29865842205331E-15  -2.09122494453538E-15
      2.60000000000000E-01
      8.00000000000000E-01   8.00000000000000E-01   0.00000000000000E+00   0.00000000000000E+00   1.35783399938818E-15
      1.65695965743865E-17   1.37440359596257E-15   3.25154978537365E-15   0.00000000000000E+00   0.00000000000000E+00
      0.00000000000000E+00   0.00000000000000E+00  -1.03628817501706E-18  -4.49472578008104E-18  -5.53101395509810E-18
     -1.15072830823660E-15  -1.30000000000000E+01  -1.30000000000000E+01   0.00000000000000E+00   0.00000000000000E+00
     -2.29585302576181E-17  -1.34591405174985E-15  -1.36887258200747E-15  -2.10082147713705E-15
      2.70000000000000E-01
      8.00000000000000E-01   8.00000000000000E-01   0.00000000000000E+00   0.00000000000000E+00   1.35967224449478E-15
     -3.23547681768999E-17   1.32731747631788E-15   3.24609275990012E-15   0.00000000000000E+00   0.00000000000000E+00
      0.00000000000000E+00   0.00000000000000E+00  -1.03628406289051E-18   1.16453968311174E-16   1.15417684248284E-16
     -1.13545472443774E-15  -1.35000000000000E+01  -1.35000000000000E+01   0.00000000000000E+00   0.00000000000000E+00
     -2.29588673821045E-17  -1.41977629318405E-15  -1.44273516056616E-15  -2.11063803546239E-15
      2.80000000000000E-01
      8.00000000000000E-01   8.00000000000000E-01   0.00000000000000E+00   0.00000000000000E+00   1.36145755504983E-15
     -2.11329592892732E-17   1.34032459576056E-15   3.24057147330564E-15   0.00000000000000E+00   0.00000000000000E+00
      0.00000000000000E+00   0.00000000000000E+00  -1.03627991781271E-18   4.89221684266725E-16   4.88185404348912E-16
     -1.11989865279084E-15  -1.40000000000000E+01  -1.40000000000000E+01   0.00000000000000E+00   0.00000000000000E+00
     -2.29592125977927E-17  -1.80555078751167E-15  -1.82851000010947E-15  -2.12067282051479E-15
      2.90000000000000E-01
      8.00000000000000E-01   8.00000000000000E-01   0.00000000000000E+00   0.00000000000000E+00   1.36318059573414E-15
      1.88975750385929E-17   1.38207817077273E-15   3.23499257679257E-15   0.00000000000000E+00   0.00000000000000E+00
      0.00000000000000E+00   0.00000000000000E+00  -1.03627574206737E-18   1.62062668628365E-15   1.61959041054158E-15
     -1.10406851020659E-15  -1.45000000000000E+01  -1.45000000000000E+01   0.00000000000000E+00   0.00000000000000E+00
     -2.29595658789479E-17  -2.97870901543536E-15  -3.00166858131431E-15  -2.13092406658598E-15
      3.00000000000000E-01
      8.00000000000000E-01   8.00000000000000E-01   0.00000000000000E+00   0.00000000000000E+00   1.36482398842446E-15
      1.24798159207981E-17   1.37730380434526E-15   3.22936287018960E-15   0.00000000000000E+00   0.00000000000000E+00
      0.00000000000000E+00   0.00000000000000E+00  -1.03627153784496E-18   4.98853076995364E-15   4.98749449841580E-15
     -1.08797282816323E-15  -1.50000000000000E+01  -1.50000000000000E+01   0.00000000000000E+00   0.00000000000000E+00
     -2.29599272014200E-17  -6.34183837555962E-15  -6.36479830276104E-15  -2.14139004202638E-15
      3.10000000000000E-01
      8.00000000000000E-01   8.00000000000000E-01   0.00000000000000E+00   0.00000000000000E+00   1.36636228218650E-15
     -4.91101310699266E-18   1.36145126907951E-15   3.22368950084648E-15   0.00000000000000E+00   0.00000000000000E+00
      0.00000000000000E+00   0.00000000000000E+00  -1.03626730717910E-18   1.47988553794920E-14   1.47978191121848E-14
     -1.07162044863112E-15  -1.55000000000000E+01  -1.55000000000000E+01   0.00000000000000E+00   0.00000000000000E+00
     -2.29602965427463E-17  -1.61363100847216E-14  -1.61592703812643E-14  -2.15206905221536E-15
      3.20000000000000E-01
      8.00000000000000E-01   8.00000000000000E-01   0.00000000000000E+00   0.00000000000000E+00   1.36776238321017E-15
      2.50359348748817E-17   1.39279831808505E-15   3.21798021490328E-15   0.00000000000000E+00   0.00000000000000E+00
      0.00000000000000E+00   0.00000000000000E+00  -1.03626305160589E-18   4.27144069354110E-14   4.27133706723594E-14
     -1.05502076926201E-15  -1.60000000000000E+01  -1.60000000000000E+01   0.00000000000000E+00   0.00000000000000E+00
     -2.29606738823534E-17  -4.40832083165623E-14  -4.41061689904447E-14  -2.16295944564126E-15
      3.30000000000000E-01
      8.00000000000000E-01   8.00000000000000E-01   0.00000000000000E+00   0.00000000000000E+00   1.36897567060958E-15
     -2.16087484856566E-17   1.34736692212393E-15   3.21224368804443E-15   0.00000000000000E+00   0.00000000000000E+00
      0.00000000000000E+00   0.00000000000000E+00  -1.03625877073119E-18   1.20192233371093E-13   1.20191197112322E-13
     -1.03818406247151E-15  -1.65000000000000E+01  -1.65000000000000E+01   0.00000000000000E+00   0.00000000000000E+00
     -2.29610592019630E-17  -1.21515602975244E-13  -1.21538564034446E-13  -2.17405962557292E-15
      3.40000000000000E-01
      8.00000000000000E-01   8.00000000000000E-01   0.00000000000000E+00   0.00000000000000E+00   1.36991767099391E-15
     -3.66064780249520E-18   1.36625702319142E-15   3.20648997798720E-15   0.00000000000000E+00   0.00000000000000E+00
      0.00000000000000E+00   0.00000000000000E+00  -1.03625445679942E-18   3.29612833343116E-13   3.29611797088659E-13
     -1.02112190451527E-15  -1.70000000000000E+01  -1.70000000000000E+01   0.00000000000000E+00   0.00000000000000E+00
     -2.29614524864233E-17  -3.30955092659365E-13  -3.30978054111851E-13  -2.18536807347194E-15
      3.50000000000000E-01
      8.00000000000000E-01   8.00000000000000E-01   0.00000000000000E+00   0.00000000000000E+00   1.37041848852629E-15
      1.08795515006626E-17   1.38129804002695E-15   3.20073116856049E-15   0.00000000000000E+00   0.00000000000000E+00
      0.00000000000000E+00   0.00000000000000E+00  -1.03625007591647E-18   8.80025696161172E-13   8.80024659911096E-13
     -1.00384777012764E-15  -1.75000000000000E+01  -1.75000000000000E+01   0.00000000000000E+00   0.00000000000000E+00
     -2.29618537254462E-17  -8.81382996097398E-13  -8.81405957951124E-13  -2.19688339843284E-15
      3.60000000000000E-01
      8.00000000000000E-01   8.00000000000000E-01   0.00000000000000E+00   0.00000000000000E+00   1.37011500926123E-15
      1.05150805863631E-17   1.38063008984760E-15   3.19498232521147E-15   0.00000000000000E+00   0.00000000000000E+00