DF-ISE text

Info {
  version   = 1.0
  type      = xyplot
  datasets  = [
    "time"
    "Ntop OuterVoltage" "Ntop InnerVoltage" "Ntop QuasiFermiPotential" "Ntop DisplacementCurrent" "Ntop eCurrent"
    "Ntop hCurrent" "Ntop TotalCurrent" "Ntop Charge" "Ptop OuterVoltage" "Ptop InnerVoltage"
    "Ptop QuasiFermiPotential" "Ptop DisplacementCurrent" "Ptop eCurrent" "Ptop hCurrent" "Ptop TotalCurrent"
    "Ptop Charge" "Pbot OuterVoltage" "Pbot InnerVoltage" "Pbot QuasiFermiPotential" "Pbot DisplacementCurrent"
    "Pbot eCurrent" "Pbot hCurrent" "Pbot TotalCurrent" "Pbot Charge" ]
  functions = [
    Time
    OuterVoltage InnerVoltage QuasiFermiPotential DisplacementCurrent eCurrent
    hCurrent TotalCurrent Charge OuterVoltage InnerVoltage
    QuasiFermiPotential DisplacementCurrent eCurrent hCurrent TotalCurrent
    Charge OuterVoltage InnerVoltage QuasiFermiPotential DisplacementCurrent
    eCurrent hCurrent TotalCurrent Charge ]
}

Data {
      0.00000000000000E+00
      0.00000000000000E+00   0.00000000000000E+00   0.00000000000000E+00   0.00000000000000E+00  -1.24761660431646E-25
     -4.48883282257068E-18  -4.48883294733234E-18   2.84891540403247E-15   0.00000000000000E+00   0.00000000000000E+00
      0.00000000000000E+00   0.00000000000000E+00   1.24746565756713E-25   1.75074649124796E-19   1.75074773871362E-19
     -9.31212223017206E-16   0.00000000000000E+00   0.00000000000000E+00   0.00000000000000E+00   0.00000000000000E+00
      1.50756276135926E-29   4.31375817344590E-18   4.31375817346098E-18  -1.91770318101526E-15
      0.00000000000000E+00
      0.00000000000000E+00   0.00000000000000E+00   0.00000000000000E+00   0.00000000000000E+00   3.69475740465197E-26
     -3.23127066415661E-19  -3.23127029468087E-19   2.84891540413584E-15   0.00000000000000E+00   0.00000000000000E+00
      0.00000000000000E+00   0.00000000000000E+00  -3.69485035176712E-26   3.94743505119739E-22   3.94706556616221E-22
     -9.31212223017215E-16   0.00000000000000E+00   0.00000000000000E+00   0.00000000000000E+00   0.00000000000000E+00
      1.41377136331050E-30   3.22732322910057E-19   3.22732322911471E-19  -1.91770318111863E-15
      1.00000000000000E-01
      8.00000000000000E-02   8.00000000000000E-02   0.00000000000000E+00   0.00000000000000E+00   1.49897069283730E-16
      2.65823467546220E-21   1.49899727518406E-16   2.93939845670655E-15   0.00000000000000E+00   0.00000000000000E+00
      0.00000000000000E+00   0.00000000000000E+00  -9.93450573470531E-19  -1.39411651303669E-17  -1.49346157038374E-17
     -1.02095247822800E-15   0.00000000000000E+00   0.00000000000000E+00   0.00000000000000E+00   0.00000000000000E+00
     -2.28396109792318E-17  -1.12125500835337E-16  -1.34965111814568E-16  -1.91844597847855E-15
      2.00000000000000E-01
      1.60000000000000E-01   1.60000000000000E-01   0.00000000000000E+00   0.00000000000000E+00   2.15285764797374E-16
     -1.32552425444561E-21   2.15284439273120E-16   3.02632291814087E-15   0.00000000000000E+00   0.00000000000000E+00
      0.00000000000000E+00   0.00000000000000E+00  -1.03470372826526E-18  -2.15976280306819E-17  -2.26323317589471E-17
     -1.10713445189644E-15   0.00000000000000E+00   0.00000000000000E+00   0.00000000000000E+00   0.00000000000000E+00
     -2.29524633388781E-17  -1.69699644175295E-16  -1.92652107514173E-16  -1.91918846624443E-15
      3.00000000000000E-01
      2.40000000000000E-01   2.40000000000000E-01   0.00000000000000E+00   0.00000000000000E+00   2.68314647966798E-16
      2.79344917837892E-19   2.68593992884636E-16   3.11028412595998E-15   0.00000000000000E+00   0.00000000000000E+00
      0.00000000000000E+00   0.00000000000000E+00  -1.03625099326273E-18  -2.81857914542283E-17  -2.92220424474911E-17
     -1.19035325297189E-15   0.00000000000000E+00   0.00000000000000E+00   0.00000000000000E+00   0.00000000000000E+00
     -2.29524423937162E-17  -2.16419508043428E-16  -2.39371950437145E-16  -1.91993087298809E-15
      4.00000000000000E-01
      3.20000000000000E-01   3.20000000000000E-01   0.00000000000000E+00   0.00000000000000E+00   3.15316520402779E-16
      7.00865408445301E-19   3.16017385811225E-16   3.19165468022197E-15   0.00000000000000E+00   0.00000000000000E+00
      0.00000000000000E+00   0.00000000000000E+00  -1.03630563332114E-18  -3.42465067854808E-17  -3.52828124188019E-17
     -1.27098146518976E-15   0.00000000000000E+00   0.00000000000000E+00   0.00000000000000E+00   0.00000000000000E+00
     -2.29524636555999E-17  -2.57782109736823E-16  -2.80734573392423E-16  -1.92067321503221E-15
      5.00000000000000E-01
      4.00000000000000E-01   4.00000000000000E-01   0.00000000000000E+00   0.00000000000000E+00   3.58388533893256E-16
      1.94254580488889E-19   3.58582788473745E-16   3.27065104904413E-15   0.00000000000000E+00   0.00000000000000E+00
      0.00000000000000E+00   0.00000000000000E+00  -1.03631527550080E-18  -3.99243921313785E-17  -4.09607074068793E-17
     -1.34923562166732E-15   0.00000000000000E+00   0.00000000000000E+00   0.00000000000000E+00   0.00000000000000E+00
     -2.29524876670978E-17  -2.94669593399768E-16  -3.17622081066866E-16  -1.92141542737682E-15
      6.00000000000000E-01
      4.80000000000000E-01   4.80000000000000E-01   0.00000000000000E+00   0.00000000000000E+00   3.98711119392317E-16
      2.73765853639061E-19   3.98984885245956E-16   3.34736753069497E-15   0.00000000000000E+00   0.00000000000000E+00
      0.00000000000000E+00   0.00000000000000E+00  -1.03632375265481E-18  -4.53215493277707E-17  -4.63578730804255E-17
     -1.42521010775109E-15   0.00000000000000E+00   0.00000000000000E+00   0.00000000000000E+00   0.00000000000000E+00
     -2.29525117994195E-17  -3.29674500366111E-16  -3.52627012165531E-16  -1.92215742294389E-15
      7.00000000000000E-01
      5.60000000000000E-01   5.60000000000000E-01   0.00000000000000E+00   0.00000000000000E+00   4.36969710555514E-16
      7.37512324994708E-19   4.37707222880509E-16   3.42178916380576E-15   0.00000000000000E+00   0.00000000000000E+00
      0.00000000000000E+00   0.00000000000000E+00  -1.03633166328078E-18  -5.05557532734438E-17  -5.15920849367246E-17
     -1.49889004689907E-15   0.00000000000000E+00   0.00000000000000E+00   0.00000000000000E+00   0.00000000000000E+00
     -2.29525359628823E-17  -3.63162601980902E-16  -3.86115137943784E-16  -1.92289911690669E-15
      8.00000000000000E-01
      6.40000000000000E-01   6.40000000000000E-01   0.00000000000000E+00   0.00000000000000E+00   4.73540446042775E-16
      2.10684517115087E-19   4.73751130559890E-16   3.49379270955266E-15   0.00000000000000E+00   0.00000000000000E+00
      0.00000000000000E+00   0.00000000000000E+00  -1.03633920774491E-18  -5.57686121652833E-17  -5.68049513730282E-17
     -1.57015227575296E-15   0.00000000000000E+00   0.00000000000000E+00   0.00000000000000E+00   0.00000000000000E+00
     -2.29525601472342E-17  -3.93993619039628E-16  -4.16946179186862E-16  -1.92364043379970E-15
      9.00000000000000E-01
      7.20000000000000E-01   7.20000000000000E-01   0.00000000000000E+00   0.00000000000000E+00   5.08742385551895E-16
     -2.02590274070471E-19   5.08539795277825E-16   3.56315254384449E-15   0.00000000000000E+00   0.00000000000000E+00
      0.00000000000000E+00   0.00000000000000E+00  -1.03634616443849E-18  -6.11247005764652E-17  -6.21610467409037E-17
     -1.63877123948408E-15   0.00000000000000E+00   0.00000000000000E+00   0.00000000000000E+00   0.00000000000000E+00
     -2.29525843462974E-17  -4.23426164190624E-16  -4.46378748536921E-16  -1.92438130436041E-15
      1.00000000000000E+00
      8.00000000000000E-01   8.00000000000000E-01   0.00000000000000E+00   0.00000000000000E+00   5.42926753857019E-16
      1.19819635934898E-18   5.44124950216369E-16   3.62959221618470E-15   0.00000000000000E+00   0.00000000000000E+00
      0.00000000000000E+00   0.00000000000000E+00  -1.03635230509418E-18  -6.68577670833053E-17  -6.78941193883995E-17
     -1.70447056423038E-15   0.00000000000000E+00   0.00000000000000E+00   0.00000000000000E+00   0.00000000000000E+00
     -2.29526085544939E-17  -4.53278222273476E-16  -4.76230830827969E-16  -1.92512165195432E-15
      0.00000000000000E+00
      8.00000000000000E-01   8.00000000000000E-01   0.00000000000000E+00   0.00000000000000E+00   5.42926753990533E-16
      3.26455271791262E-19   5.43253209262324E-16   3.62959221618471E-15   0.00000000000000E+00   0.00000000000000E+00
      0.00000000000000E+00   0.00000000000000E+00  -1.03635243863084E-18  -6.68574063297691E-17  -6.78937587683999E-17
     -1.70447056423038E-15   0.00000000000000E+00   0.00000000000000E+00   0.00000000000000E+00   0.00000000000000E+00
     -2.29526085544939E-17  -4.52406841939431E-16  -4.75359450493925E-16  -1.92512165195432E-15
      1.00000000000000E-02
      8.00000000000000E-01   8.00000000000000E-01   0.00000000000000E+00   0.00000000000000E+00   6.97600473661597E-16
     -2.50252321840377E-18   6.95097950443194E-16   3.63418665279746E-15   0.00000000000000E+00   0.00000000000000E+00
      0.00000000000000E+00   0.00000000000000E+00  -1.03635243240397E-18  -6.62260304542685E-17  -6.72623828866725E-17
     -1.70444898536739E-15  -5.00000000000000E-01  -5.00000000000000E-01   0.00000000000000E+00   0.00000000000000E+00
     -2.29527595307667E-17  -6.04882808025754E-16  -6.27835567556521E-16  -1.92973766743007E-15
      2.00000000000000E-02
      8.00000000000000E-01   8.00000000000000E-01   0.00000000000000E+00   0.00000000000000E+00   8.26217335565300E-16
     -4.25274391909263E-18   8.21964591646207E-16   3.63868586503882E-15   0.00000000000000E+00   0.00000000000000E+00
      0.00000000000000E+00   0.00000000000000E+00  -1.03635240416054E-18  -6.57765384441800E-17  -6.68128908483405E-17
     -1.70435113871851E-15  -1.00000000000000E+00  -1.00000000000000E+00   0.00000000000000E+00   0.00000000000000E+00
     -2.29529113328222E-17  -7.32198789465044E-16  -7.55151700797866E-16  -1.93433472632032E-15
      3.00000000000000E-02
      8.00000000000000E-01   8.00000000000000E-01   0.00000000000000E+00   0.00000000000000E+00   9.37596236916026E-16
     -2.43205687636750E-18   9.35164180039659E-16   3.64291031785496E-15   0.00000000000000E+00   0.00000000000000E+00
      0.00000000000000E+00   0.00000000000000E+00  -1.03635229941639E-18  -6.55166058721148E-17  -6.65529581715312E-17
     -1.70398845449029E-15  -1.50000000000000E+00  -1.50000000000000E+00   0.00000000000000E+00   0.00000000000000E+00
     -2.29530628143360E-17  -8.45658159053792E-16  -8.68611221868128E-16  -1.93892186336467E-15
      4.00000000000000E-02
      8.00000000000000E-01   8.00000000000000E-01   0.00000000000000E+00   0.00000000000000E+00   1.03119915660879E-15
      3.01237946119476E-18   1.03421153606998E-15   3.64642851865878E-15   0.00000000000000E+00   0.00000000000000E+00
      0.00000000000000E+00   0.00000000000000E+00  -1.03635198230387E-18  -6.55302138717558E-17  -6.65665658540597E-17
     -1.70289038812648E-15  -2.00000000000000E+00  -2.00000000000000E+00   0.00000000000000E+00   0.00000000000000E+00
     -2.29532156096499E-17  -9.44691754606272E-16  -9.67644970215922E-16  -1.94353813053231E-15
      5.00000000000000E-02
      8.00000000000000E-01   8.00000000000000E-01   0.00000000000000E+00   0.00000000000000E+00   1.10774912471477E-15
     -2.07396548332298E-19   1.10754172816644E-15   3.64840266760033E-15   0.00000000000000E+00   0.00000000000000E+00
      0.00000000000000E+00   0.00000000000000E+00  -1.03635119863507E-18  -6.59995714871190E-17  -6.70359226857540E-17
     -1.70016687760102E-15  -2.50000000000000E+00  -2.50000000000000E+00   0.00000000000000E+00   0.00000000000000E+00
     -2.29533714073723E-17  -1.01755243407331E-15  -1.04050580548068E-15  -1.94823578999930E-15
      6.00000000000000E-02
      8.00000000000000E-01   8.00000000000000E-01   0.00000000000000E+00   0.00000000000000E+00   1.17119159593854E-15
      5.88562044004463E-18   1.17707721637859E-15   3.64774367880113E-15   0.00000000000000E+00   0.00000000000000E+00
      0.00000000000000E+00   0.00000000000000E+00  -1.03634964312624E-18  -6.72463670173359E-17  -6.82827166604621E-17
     -1.69468651377904E-15  -3.00000000000000E+00  -3.00000000000000E+00   0.00000000000000E+00   0.00000000000000E+00
     -2.29535315932876E-17  -1.08584096812484E-15  -1.10879449971812E-15  -1.95305716502208E-15
      7.00000000000000E-02
      8.00000000000000E-01   8.00000000000000E-01   0.00000000000000E+00   0.00000000000000E+00   1.22291343366961E-15
      3.00874776749557E-18   1.22592218143710E-15   3.64392039669375E-15   0.00000000000000E+00   0.00000000000000E+00
      0.00000000000000E+00   0.00000000000000E+00  -1.03634721663773E-18  -6.96724518978928E-17  -7.07087991145305E-17
     -1.68588117104353E-15  -3.50000000000000E+00  -3.50000000000000E+00   0.00000000000000E+00   0.00000000000000E+00
     -2.29536973919047E-17  -1.13225968493067E-15  -1.15521338232257E-15  -1.95803922565023E-15
      8.00000000000000E-02
      8.00000000000000E-01   8.00000000000000E-01   0.00000000000000E+00   0.00000000000000E+00   1.26327303763768E-15
     -5.99620529271323E-18   1.25727683234497E-15   3.63749062212304E-15   0.00000000000000E+00   0.00000000000000E+00
      0.00000000000000E+00   0.00000000000000E+00  -1.03634414516798E-18  -7.34446481874907E-17  -7.44809923326587E-17
     -1.67427349374891E-15  -4.00000000000000E+00  -4.00000000000000E+00   0.00000000000000E+00   0.00000000000000E+00
     -2.29538699792323E-17  -1.15984197003308E-15  -1.18279584001231E-15  -1.96321712837412E-15
      9.00000000000000E-02
      8.00000000000000E-01   8.00000000000000E-01   0.00000000000000E+00   0.00000000000000E+00   1.29346825256489E-15
     -2.50286695240241E-18   1.29096538561249E-15   3.62935077412002E-15   0.00000000000000E+00   0.00000000000000E+00
      0.00000000000000E+00   0.00000000000000E+00  -1.03634070785795E-18  -7.77864638764354E-17  -7.88228045842934E-17
     -1.66073445646222E-15  -4.50000000000000E+00  -4.50000000000000E+00   0.00000000000000E+00   0.00000000000000E+00
     -2.29540502165212E-17  -1.18918853081168E-15  -1.21214258102820E-15  -1.96861631765780E-15
      1.00000000000000E-01
      8.00000000000000E-01   8.00000000000000E-01   0.00000000000000E+00   0.00000000000000E+00   1.31418411548296E-15
     -4.13712794587975E-18   1.31004698753708E-15   3.62008865364834E-15   0.00000000000000E+00   0.00000000000000E+00
      0.00000000000000E+00   0.00000000000000E+00  -1.03633706342323E-18  -8.09901781984201E-17  -8.20265152618433E-17
     -1.64583961973003E-15  -5.00000000000000E+00  -5.00000000000000E+00   0.00000000000000E+00   0.00000000000000E+00
     -2.29542385300539E-17  -1.20506623374518E-15  -1.22802047227523E-15  -1.97424903391831E-15
      1.10000000000000E-01
      8.00000000000000E-01   8.00000000000000E-01   0.00000000000000E+00   0.00000000000000E+00   1.32753575268195E-15
     -4.36431619206565E-18   1.32317143648988E-15   3.60999962092217E-15   0.00000000000000E+00   0.00000000000000E+00
      0.00000000000000E+00   0.00000000000000E+00  -1.03633328292997E-18  -8.24101800470663E-17  -8.34465133299962E-17
     -1.62988035963810E-15  -5.50000000000000E+00  -5.50000000000000E+00   0.00000000000000E+00   0.00000000000000E+00
     -2.29544350732514E-17  -1.21677048808663E-15  -1.23972492315989E-15  -1.98011926128407E-15
      1.20000000000000E-01
      8.00000000000000E-01   8.00000000000000E-01   0.00000000000000E+00   0.00000000000000E+00   1.33648678266326E-15
      6.24224081683251E-18   1.34272902348009E-15   3.59922079322272E-15   0.00000000000000E+00   0.00000000000000E+00
      0.00000000000000E+00   0.00000000000000E+00  -1.03632939830984E-18  -8.26471214938811E-17  -8.36834508921909E-17
     -1.61299379254286E-15  -6.00000000000000E+00  -6.00000000000000E+00   0.00000000000000E+00   0.00000000000000E+00
     -2.29546398678630E-17  -1.23609093272004E-15  -1.25904557258790E-15  -1.98622700067985E-15
      1.30000000000000E-01
      8.00000000000000E-01   8.00000000000000E-01   0.00000000000000E+00   0.00000000000000E+00   1.34305319729181E-15
     -1.07992354563781E-17   1.33225396183543E-15   3.58780288720624E-15   0.00000000000000E+00   0.00000000000000E+00
      0.00000000000000E+00   0.00000000000000E+00  -1.03632542466725E-18  -8.22729299456683E-17  -8.33092553703355E-17
     -1.59523264615176E-15  -6.50000000000000E+00  -6.50000000000000E+00   0.00000000000000E+00   0.00000000000000E+00
     -2.29548528691469E-17  -1.22598985359595E-15  -1.24894470646510E-15  -1.99257024105448E-15
      1.40000000000000E-01
      8.00000000000000E-01   8.00000000000000E-01   0.00000000000000E+00   0.00000000000000E+00   1.34826785216978E-15
      1.17591442395998E-17   1.36002699640938E-15   3.57573662734288E-15   0.00000000000000E+00   0.00000000000000E+00
      0.00000000000000E+00   0.00000000000000E+00  -1.03632136859343E-18  -8.15812623687443E-17  -8.26175837373377E-17
     -1.57659094289781E-15  -7.00000000000000E+00  -7.00000000000000E+00   0.00000000000000E+00   0.00000000000000E+00
     -2.29550739897237E-17  -1.25445433868232E-15  -1.27740941267204E-15  -1.99914568444508E-15
      1.50000000000000E-01
      8.00000000000000E-01   8.00000000000000E-01   0.00000000000000E+00   0.00000000000000E+00   1.35263531197233E-15
     -6.75270969315552E-18   1.34588260227917E-15   3.56295798629076E-15   0.00000000000000E+00   0.00000000000000E+00
      0.00000000000000E+00   0.00000000000000E+00  -1.03631723116891E-18  -8.07006933268998E-17  -8.17370105580687E-17
     -1.55700905111441E-15  -7.50000000000000E+00  -7.50000000000000E+00   0.00000000000000E+00   0.00000000000000E+00
     -2.29553031055842E-17  -1.24119028861552E-15  -1.26414559172110E-15  -2.00594893517634E-15
      1.60000000000000E-01
      8.00000000000000E-01   8.00000000000000E-01   0.00000000000000E+00   0.00000000000000E+00   1.35642251307392E-15
     -3.69839944623711E-18   1.35272411362769E-15   3.54935234038667E-15   0.00000000000000E+00   0.00000000000000E+00
      0.00000000000000E+00   0.00000000000000E+00  -1.03631300971618E-18  -7.96891327669398E-17  -8.07254457766560E-17
     -1.53637767237192E-15  -8.00000000000000E+00  -8.00000000000000E+00   0.00000000000000E+00   0.00000000000000E+00
     -2.29555400614589E-17  -1.24904312778957E-15  -1.27199866785103E-15  -2.01297466801477E-15
      1.70000000000000E-01
      8.00000000000000E-01   8.00000000000000E-01   0.00000000000000E+00   0.00000000000000E+00   1.35977538406717E-15
      2.51382380803461E-18   1.36228920787520E-15   3.53479855932611E-15   0.00000000000000E+00   0.00000000000000E+00
      0.00000000000000E+00   0.00000000000000E+00  -1.03630870202269E-18  -7.85715628105872E-17  -7.96078715126099E-17
     -1.51458081392040E-15  -8.50000000000000E+00  -8.50000000000000E+00   0.00000000000000E+00   0.00000000000000E+00
     -2.29557847082953E-17  -1.25972555165430E-15  -1.28268133636259E-15  -2.02021774540570E-15
      1.80000000000000E-01
      8.00000000000000E-01   8.00000000000000E-01   0.00000000000000E+00   0.00000000000000E+00   1.36277095691691E-15
      1.64303882832130E-17   1.37920134520013E-15   3.51930693257819E-15   0.00000000000000E+00   0.00000000000000E+00
      0.00000000000000E+00   0.00000000000000E+00  -1.03630431629953E-18  -7.73039676717806E-17  -7.83402719880802E-17
     -1.49163045158514E-15  -9.00000000000000E+00  -9.00000000000000E+00   0.00000000000000E+00   0.00000000000000E+00
     -2.29560370137356E-17  -1.27790503619831E-15  -1.30086107321205E-15  -2.02767648099304E-15
      1.90000000000000E-01
      8.00000000000000E-01   8.00000000000000E-01   0.00000000000000E+00   0.00000000000000E+00   1.36543317900452E-15
      3.14599129534599E-18   1.36857917029987E-15   3.50314233349328E-15   0.00000000000000E+00   0.00000000000000E+00
      0.00000000000000E+00   0.00000000000000E+00  -1.03629987795188E-18  -7.56205463801761E-17  -7.66568462581280E-17
     -1.46778692963644E-15  -9.50000000000000E+00  -9.50000000000000E+00   0.00000000000000E+00   0.00000000000000E+00
     -2.29562971566689E-17  -1.26896602688508E-15  -1.29192232404174E-15  -2.03535540385684E-15
      2.00000000000000E-01
      8.00000000000000E-01   8.00000000000000E-01   0.00000000000000E+00   0.00000000000000E+00   1.36773672636989E-15
      9.38338182061791E-18   1.37712010819051E-15   3.48668417043884E-15   0.00000000000000E+00   0.00000000000000E+00
      0.00000000000000E+00   0.00000000000000E+00  -1.03629541734599E-18  -7.25007364761277E-17  -7.35370318934737E-17
     -1.44342232987037E-15  -1.00000000000000E+01  -1.00000000000000E+01   0.00000000000000E+00   0.00000000000000E+00
     -2.29565654127412E-17  -1.28062651088430E-15  -1.30358307629704E-15  -2.04326184056847E-15
      2.10000000000000E-01
      8.00000000000000E-01   8.00000000000000E-01   0.00000000000000E+00   0.00000000000000E+00   1.36966295889237E-15
      3.22972981146472E-18   1.37289268870384E-15   3.47020495907287E-15   0.00000000000000E+00   0.00000000000000E+00
      0.00000000000000E+00   0.00000000000000E+00  -1.03629095466594E-18  -6.41741089478022E-17  -6.52103999024681E-17
     -1.41880422379559E-15  -1.05000000000000E+01  -1.05000000000000E+01   0.00000000000000E+00   0.00000000000000E+00
     -2.29568419789611E-17  -1.28472544682241E-15  -1.30768228880137E-15  -2.05140073527728E-15
      2.20000000000000E-01
      8.00000000000000E-01   8.00000000000000E-01   0.00000000000000E+00   0.00000000000000E+00   1.37120338749287E-15
      9.80544103583026E-18   1.38100882852870E-15   3.45383939230506E-15   0.00000000000000E+00   0.00000000000000E+00
      0.00000000000000E+00   0.00000000000000E+00  -1.03628648408303E-18  -3.70481494359258E-17  -3.80844359200088E-17
     -1.39406545601209E-15  -1.10000000000000E+01  -1.10000000000000E+01   0.00000000000000E+00   0.00000000000000E+00
     -2.29571269488099E-17  -1.31996726565988E-15  -1.34292439260869E-15  -2.05977393629297E-15
      2.30000000000000E-01
      8.00000000000000E-01   8.00000000000000E-01   0.00000000000000E+00   0.00000000000000E+00   1.37235221949025E-15
      1.27864052690851E-17   1.38513862475933E-15   3.43764445943650E-15   0.00000000000000E+00   0.00000000000000E+00
      0.00000000000000E+00   0.00000000000000E+00  -1.03628204261859E-18   5.65221794938600E-17   5.54858974512414E-17
     -1.36926289793859E-15  -1.15000000000000E+01  -1.15000000000000E+01   0.00000000000000E+00   0.00000000000000E+00
     -2.29574203580277E-17  -1.41766710185254E-15  -1.44062452221057E-15  -2.06838156149791E-15
      2.40000000000000E-01
      8.00000000000000E-01   8.00000000000000E-01   0.00000000000000E+00   0.00000000000000E+00   1.37312134623279E-15
      1.51122563829249E-17   1.38823360261571E-15   3.42164378457723E-15   0.00000000000000E+00   0.00000000000000E+00
      0.00000000000000E+00   0.00000000000000E+00  -1.03627761552959E-18   3.77819629164614E-16   3.76783351549084E-16
     -1.34442079477736E-15  -1.20000000000000E+01  -1.20000000000000E+01   0.00000000000000E+00   0.00000000000000E+00
     -2.29577222180264E-17  -1.74205923194677E-15  -1.76501695416480E-15  -2.07722298979987E-15
      2.50000000000000E-01
      8.00000000000000E-01   8.00000000000000E-01   0.00000000000000E+00   0.00000000000000E+00   1.37355745731799E-15
      1.97513218915222E-17   1.39330877920951E-15   3.40584785393863E-15   0.00000000000000E+00   0.00000000000000E+00
      0.00000000000000E+00   0.00000000000000E+00  -1.03627318547575E-18   1.45357278112052E-15   1.45253650793505E-15
     -1.31955055127964E-15  -1.25000000000000E+01  -1.25000000000000E+01   0.00000000000000E+00   0.00000000000000E+00
     -2.29580325308071E-17  -2.82288725461375E-15  -2.84584528714455E-15  -2.08629730265899E-15
      2.60000000000000E-01
      8.00000000000000E-01   8.00000000000000E-01   0.00000000000000E+00   0.00000000000000E+00   1.37372993236843E-15
     -4.63114018742421E-18   1.36909879218101E-15   3.39026219095772E-15   0.00000000000000E+00   0.00000000000000E+00
      0.00000000000000E+00   0.00000000000000E+00  -1.03626877271493E-18   4.94297904183990E-15   4.94194277306719E-15
     -1.29465873588473E-15  -1.30000000000000E+01  -1.30000000000000E+01   0.00000000000000E+00   0.00000000000000E+00
     -2.29583512947250E-17  -6.28808321395349E-15  -6.31104156524821E-15  -2.09560345507299E-15
      2.70000000000000E-01
      8.00000000000000E-01   8.00000000000000E-01   0.00000000000000E+00   0.00000000000000E+00   1.37369949580828E-15
     -1.61049110109500E-17   1.35759458479733E-15   3.37489072974492E-15   0.00000000000000E+00   0.00000000000000E+00
      0.00000000000000E+00   0.00000000000000E+00  -1.03626438946957E-18   1.58832263798256E-14   1.58821901154361E-14
     -1.26975038857400E-15  -1.35000000000000E+01  -1.35000000000000E+01   0.00000000000000E+00   0.00000000000000E+00
     -2.29586785067135E-17  -1.72168260217267E-14  -1.72397847002335E-14  -2.10514034117092E-15
      2.80000000000000E-01
      8.00000000000000E-01   8.00000000000000E-01   0.00000000000000E+00   0.00000000000000E+00   1.37349438933015E-15
      4.49807761063046E-17   1.41847516543646E-15   3.35973741134073E-15   0.00000000000000E+00   0.00000000000000E+00
      0.00000000000000E+00   0.00000000000000E+00  -1.03626000416930E-18   4.90028664621746E-14   4.90018302021704E-14
     -1.24483058802729E-15  -1.40000000000000E+01  -1.40000000000000E+01   0.00000000000000E+00   0.00000000000000E+00
     -2.29590141632524E-17  -5.03973463534436E-14  -5.04203053676069E-14  -2.11490682331344E-15
      2.90000000000000E-01
      8.00000000000000E-01   8.00000000000000E-01   0.00000000000000E+00   0.00000000000000E+00   1.37309303657597E-15
     -2.85672975883880E-18   1.37023630681713E-15   3.34480718340753E-15   0.00000000000000E+00   0.00000000000000E+00
      0.00000000000000E+00   0.00000000000000E+00  -1.03625558259328E-18   1.45747479297211E-13   1.45746443041629E-13
     -1.21990542960034E-15  -1.45000000000000E+01  -1.45000000000000E+01   0.00000000000000E+00   0.00000000000000E+00
     -2.29593582611024E-17  -1.47093719990186E-13  -1.47116679348447E-13  -2.12490175380718E-15
      3.00000000000000E-01
      8.00000000000000E-01   8.00000000000000E-01   0.00000000000000E+00   0.00000000000000E+00   1.37239314557637E-15
     -1.66370115984158E-17   1.35575613397796E-15   3.33010690006482E-15   0.00000000000000E+00   0.00000000000000E+00
      0.00000000000000E+00   0.00000000000000E+00  -1.03625067584350E-18   4.18253514872427E-13   4.18252478621751E-13
     -1.19498289223028E-15  -1.50000000000000E+01  -1.50000000000000E+01   0.00000000000000E+00   0.00000000000000E+00
     -2.29597107984459E-17  -4.19585275044931E-13  -4.19608234755730E-13  -2.13512400783454E-15
      3.10000000000000E-01
      8.00000000000000E-01   8.00000000000000E-01   0.00000000000000E+00   0.00000000000000E+00   1.37113915121679E-15
     -7.75825355081447E-18   1.36338089766597E-15   3.31564639953887E-15   0.00000000000000E+00   0.00000000000000E+00
      0.00000000000000E+00   0.00000000000000E+00  -1.03624569544010E-18   1.15791780055517E-12   1.15791676430948E-12
     -1.17007384731119E-15  -1.55000000000000E+01  -1.55000000000000E+01   0.00000000000000E+00   0.00000000000000E+00
     -2.29600717772774E-17  -1.15925718513537E-12  -1.15928014520714E-12  -2.14557255222768E-15
      3.20000000000000E-01
      8.00000000000000E-01   8.00000000000000E-01   0.00000000000000E+00   0.00000000000000E+00   1.36875823345115E-15
     -1.21421926771839E-18   1.36754401418344E-15   3.30144001854873E-15   0.00000000000000E+00   0.00000000000000E+00
      0.00000000000000E+00   0.00000000000000E+00  -1.03624077999262E-18   3.09099183818972E-12   3.09099080194894E-12
     -1.14519342131531E-15  -1.60000000000000E+01  -1.60000000000000E+01   0.00000000000000E+00   0.00000000000000E+00
     -2.29604412087142E-17  -3.09233538552192E-12  -3.09235834596313E-12  -2.15624659723343E-15
      3.30000000000000E-01
      8.00000000000000E-01   8.00000000000000E-01   0.00000000000000E+00   0.00000000000000E+00   1.36401944285017E-15
      1.25101457253621E-17   1.37652958857553E-15   3.28750890137017E-15   0.00000000000000E+00   0.00000000000000E+00
      0.00000000000000E+00   0.00000000000000E+00  -1.03623257717520E-18   7.95030855862279E-12   7.95030752239021E-12
     -1.12036297628801E-15  -1.65000000000000E+01  -1.65000000000000E+01   0.00000000000000E+00   0.00000000000000E+00
     -2.29608191245664E-17  -7.95166109115963E-12  -7.95168405197876E-12  -2.16714592508216E-15
      3.40000000000000E-01
      8.00000000000000E-01   8.00000000000000E-01   0.00000000000000E+00   0.00000000000000E+00   1.35440956931295E-15
      2.77673291767853E-17   1.38217689848974E-15   3.27388465369003E-15   0.00000000000000E+00   0.00000000000000E+00
      0.00000000000000E+00   0.00000000000000E+00  -1.03621669867116E-18   1.96839948586685E-11   1.96839938224518E-11
     -1.09561308246338E-15  -1.70000000000000E+01  -1.70000000000000E+01   0.00000000000000E+00   0.00000000000000E+00
     -2.29612056013786E-17  -1.96853530381446E-11  -1.96853759993502E-11  -2.17827157122664E-15
      3.50000000000000E-01
      8.00000000000000E-01   8.00000000000000E-01   0.00000000000000E+00   0.00000000000000E+00   1.33522701144302E-15
     -1.43712102602122E-17   1.32085580118281E-15   3.26061512946017E-15   0.00000000000000E+00   0.00000000000000E+00
      0.00000000000000E+00   0.00000000000000E+00  -1.03618236186314E-18   4.68504745380136E-11   4.68504735018313E-11
     -1.07098797285387E-15  -1.75000000000000E+01  -1.75000000000000E+01   0.00000000000000E+00   0.00000000000000E+00
     -2.29616008076109E-17  -4.68517713960319E-11  -4.68517943576327E-11  -2.18962715660630E-15
      3.60000000000000E-01
      8.00000000000000E-01   8.00000000000000E-01   0.00000000000000E+00   0.00000000000000E+00   1.29894955622634E-15
     -6.23288585505857E-18   1.29271667037128E-15   3.24777324657442E-15   0.00000000000000E+00   0.00000000000000E+00