DF-ISE text

Info {
  version   = 1.0
  type      = xyplot
  datasets  = [
    "time"
    "Ntop OuterVoltage" "Ntop InnerVoltage" "Ntop QuasiFermiPotential" "Ntop DisplacementCurrent" "Ntop eCurrent"
    "Ntop hCurrent" "Ntop TotalCurrent" "Ntop Charge" "Ptop OuterVoltage" "Ptop InnerVoltage"
    "Ptop QuasiFermiPotential" "Ptop DisplacementCurrent" "Ptop eCurrent" "Ptop hCurrent" "Ptop TotalCurrent"
    "Ptop Charge" "Pbot OuterVoltage" "Pbot InnerVoltage" "Pbot QuasiFermiPotential" "Pbot DisplacementCurrent"
    "Pbot eCurrent" "Pbot hCurrent" "Pbot TotalCurrent" "Pbot Charge" ]
  functions = [
    Time
    OuterVoltage InnerVoltage QuasiFermiPotential DisplacementCurrent eCurrent
    hCurrent TotalCurrent Charge OuterVoltage InnerVoltage
    QuasiFermiPotential DisplacementCurrent eCurrent hCurrent TotalCurrent
    Charge OuterVoltage InnerVoltage QuasiFermiPotential DisplacementCurrent
    eCurrent hCurrent TotalCurrent Charge ]
}

Data {
      0.00000000000000E+00
      0.00000000000000E+00   0.00000000000000E+00   0.00000000000000E+00   0.00000000000000E+00  -3.42008532812316E-25
     -4.56017541314222E-18  -4.56017575515075E-18   2.69888605307833E-15   0.00000000000000E+00   0.00000000000000E+00
      0.00000000000000E+00   0.00000000000000E+00   3.42010399866755E-25   1.92628819425813E-19   1.92629161436213E-19
     -7.81182872051942E-16   0.00000000000000E+00   0.00000000000000E+00   0.00000000000000E+00   0.00000000000000E+00
     -1.88364579543204E-30   4.36754659371642E-18   4.36754659371454E-18  -1.91770318102638E-15
      0.00000000000000E+00
      0.00000000000000E+00   0.00000000000000E+00   0.00000000000000E+00   0.00000000000000E+00  -2.87897305195546E-26
     -6.44676230734257E-20  -6.44676518631562E-20   2.69888605318170E-15   0.00000000000000E+00   0.00000000000000E+00
      0.00000000000000E+00   0.00000000000000E+00   2.87951728476103E-26  -7.55991925891496E-23  -7.55703974163020E-23
     -7.81182872051945E-16   0.00000000000000E+00   0.00000000000000E+00   0.00000000000000E+00   0.00000000000000E+00
     -4.94699256976083E-30   6.45432222655195E-20   6.45432222605725E-20  -1.91770318112976E-15
      1.00000000000000E-01
      8.00000000000000E-02   8.00000000000000E-02   0.00000000000000E+00   0.00000000000000E+00   1.48801709100331E-16
      2.62015158664844E-19   1.49063724258995E-16   2.76678208287034E-15   0.00000000000000E+00   0.00000000000000E+00
      0.00000000000000E+00   0.00000000000000E+00  -9.93451058784234E-19  -1.27071436460632E-17  -1.37005947048474E-17
     -8.48336104358490E-16   0.00000000000000E+00   0.00000000000000E+00   0.00000000000000E+00   0.00000000000000E+00
     -2.28396109806495E-17  -1.12523518573499E-16  -1.35363129554148E-16  -1.91844597851186E-15
      2.00000000000000E-01
      1.60000000000000E-01   1.60000000000000E-01   0.00000000000000E+00   0.00000000000000E+00   2.13576944134881E-16
      2.05072642506941E-19   2.13782016777388E-16   2.83127300741497E-15   0.00000000000000E+00   0.00000000000000E+00
      0.00000000000000E+00   0.00000000000000E+00  -1.03470424972539E-18  -1.97401992767064E-17  -2.07749035264318E-17
     -9.12084541083411E-16   0.00000000000000E+00   0.00000000000000E+00   0.00000000000000E+00   0.00000000000000E+00
     -2.29524633403317E-17  -1.70054649910624E-16  -1.93007113250956E-16  -1.91918846633156E-15
      3.00000000000000E-01
      2.40000000000000E-01   2.40000000000000E-01   0.00000000000000E+00   0.00000000000000E+00   2.66088118192654E-16
      3.52817217303119E-19   2.66440935409957E-16   2.89295236013603E-15   0.00000000000000E+00   0.00000000000000E+00
      0.00000000000000E+00   0.00000000000000E+00  -1.03625148237568E-18  -2.58068358150761E-17  -2.68430872974518E-17
     -9.73021486933576E-16   0.00000000000000E+00   0.00000000000000E+00   0.00000000000000E+00   0.00000000000000E+00
     -2.29524423937214E-17  -2.16645405718784E-16  -2.39597848112505E-16  -1.91993087320246E-15
      4.00000000000000E-01
      3.20000000000000E-01   3.20000000000000E-01   0.00000000000000E+00   0.00000000000000E+00   3.12595848196835E-16
      5.80206462142950E-19   3.13176054658978E-16   2.95223179009942E-15   0.00000000000000E+00   0.00000000000000E+00
      0.00000000000000E+00   0.00000000000000E+00  -1.03630611644716E-18  -3.13729179492545E-17  -3.24092240657017E-17
     -1.03155857456185E-15   0.00000000000000E+00   0.00000000000000E+00   0.00000000000000E+00   0.00000000000000E+00
     -2.29524636556164E-17  -2.57814366937660E-16  -2.80766830593277E-16  -1.92067321553758E-15
      5.00000000000000E-01
      4.00000000000000E-01   4.00000000000000E-01   0.00000000000000E+00   0.00000000000000E+00   3.55229499016491E-16
     -1.46118157249762E-18   3.53768317443994E-16   3.00939283268068E-15   0.00000000000000E+00   0.00000000000000E+00
      0.00000000000000E+00   0.00000000000000E+00  -1.03631586860968E-18  -3.66052270637650E-17  -3.76415429323747E-17
     -1.08797740414679E-15   0.00000000000000E+00   0.00000000000000E+00   0.00000000000000E+00   0.00000000000000E+00
     -2.29524876671352E-17  -2.93174286844484E-16  -3.16126774511619E-16  -1.92141542853389E-15
      6.00000000000000E-01
      4.80000000000000E-01   4.80000000000000E-01   0.00000000000000E+00   0.00000000000000E+00   3.95163507109836E-16
      7.15410721585170E-19   3.95878917831421E-16   3.06461491372267E-15   0.00000000000000E+00   0.00000000000000E+00
      0.00000000000000E+00   0.00000000000000E+00  -1.03632449740017E-18  -4.16023989414393E-17  -4.26387234388395E-17
     -1.14245748817438E-15   0.00000000000000E+00   0.00000000000000E+00   0.00000000000000E+00   0.00000000000000E+00
     -2.29525117995042E-17  -3.30287682593077E-16  -3.53240194392581E-16  -1.92215742554829E-15
      7.00000000000000E-01
      5.60000000000000E-01   5.60000000000000E-01   0.00000000000000E+00   0.00000000000000E+00   4.33033949186866E-16
      2.35262935899015E-19   4.33269212122765E-16   3.11798877623000E-15   0.00000000000000E+00   0.00000000000000E+00
      0.00000000000000E+00   0.00000000000000E+00  -1.03633260837035E-18  -4.64404774959045E-17  -4.74768101042748E-17
     -1.19508965348829E-15   0.00000000000000E+00   0.00000000000000E+00   0.00000000000000E+00   0.00000000000000E+00
     -2.29525359630725E-17  -3.62839866055418E-16  -3.85792402018490E-16  -1.92289912274172E-15
      8.00000000000000E-01
      6.40000000000000E-01   6.40000000000000E-01   0.00000000000000E+00   0.00000000000000E+00   4.69163330828186E-16
      1.02818505493685E-18   4.70191515883123E-16   3.16952236898964E-15   0.00000000000000E+00   0.00000000000000E+00
      0.00000000000000E+00   0.00000000000000E+00  -1.03634038232354E-18  -5.11978107586757E-17  -5.22341511409992E-17
     -1.24588192200562E-15   0.00000000000000E+00   0.00000000000000E+00   0.00000000000000E+00   0.00000000000000E+00
     -2.29525601476645E-17  -3.95004804594460E-16  -4.17957364742124E-16  -1.92364044698403E-15
      9.00000000000000E-01
      7.20000000000000E-01   7.20000000000000E-01   0.00000000000000E+00   0.00000000000000E+00   5.03801614845404E-16
      2.00162752477938E-19   5.04001777597882E-16   3.21915030716460E-15   0.00000000000000E+00   0.00000000000000E+00
      0.00000000000000E+00   0.00000000000000E+00  -1.03634764772680E-18  -5.59735442174477E-17  -5.70098918651745E-17
     -1.29476897238151E-15   0.00000000000000E+00   0.00000000000000E+00   0.00000000000000E+00   0.00000000000000E+00
     -2.29525843472918E-17  -4.24039301385416E-16  -4.46991885732708E-16  -1.92438133478309E-15
      1.00000000000000E+00
      8.00000000000000E-01   8.00000000000000E-01   0.00000000000000E+00   0.00000000000000E+00   5.37208322865080E-16
      1.08589752533602E-18   5.38294220390416E-16   3.26676897630240E-15   0.00000000000000E+00   0.00000000000000E+00
      0.00000000000000E+00   0.00000000000000E+00  -1.03635427095990E-18  -6.09194800640284E-17  -6.19558343349883E-17
     -1.34164725220061E-15   0.00000000000000E+00   0.00000000000000E+00   0.00000000000000E+00   0.00000000000000E+00
     -2.29526085568542E-17  -4.53385777498573E-16  -4.76338386055428E-16  -1.92512172410180E-15
      0.00000000000000E+00
      8.00000000000000E-01   8.00000000000000E-01   0.00000000000000E+00   0.00000000000000E+00   5.37208322934061E-16
      9.53483591432982E-20   5.37303671293204E-16   3.26676897630241E-15   0.00000000000000E+00   0.00000000000000E+00
      0.00000000000000E+00   0.00000000000000E+00  -1.03635433994433E-18  -6.09186104512490E-17  -6.19549647911934E-17
     -1.34164725220061E-15   0.00000000000000E+00   0.00000000000000E+00   0.00000000000000E+00   0.00000000000000E+00
     -2.29526085568542E-17  -4.52396097945157E-16  -4.75348706502011E-16  -1.92512172410179E-15
      1.00000000000000E-02
      8.00000000000000E-01   8.00000000000000E-01   0.00000000000000E+00   0.00000000000000E+00   6.91835159300091E-16
     -1.40002179947247E-18   6.90435137500618E-16   3.27137140156713E-15   0.00000000000000E+00   0.00000000000000E+00
      0.00000000000000E+00   0.00000000000000E+00  -1.03635433509256E-18  -6.03368223194801E-17  -6.13731766545726E-17
     -1.34163327787358E-15  -5.00000000000000E-01  -5.00000000000000E-01   0.00000000000000E+00   0.00000000000000E+00
     -2.29527595457683E-17  -6.06109201300277E-16  -6.29061960846046E-16  -1.92973812369355E-15
      2.00000000000000E-02
      8.00000000000000E-01   8.00000000000000E-01   0.00000000000000E+00   0.00000000000000E+00   8.20247094402161E-16
     -1.02981913351850E-18   8.19217275268642E-16   3.27590705449274E-15   0.00000000000000E+00   0.00000000000000E+00
      0.00000000000000E+00   0.00000000000000E+00  -1.03635431317599E-18  -5.99310409427701E-17  -6.09673952559461E-17
     -1.34157016200158E-15  -1.00000000000000E+00  -1.00000000000000E+00   0.00000000000000E+00   0.00000000000000E+00
     -2.29529114042631E-17  -7.35296968608434E-16  -7.58249880012697E-16  -1.93433689249117E-15
      3.00000000000000E-02
      8.00000000000000E-01   8.00000000000000E-01   0.00000000000000E+00   0.00000000000000E+00   9.30941803266458E-16
      2.94962047603722E-19   9.31236765314062E-16   3.28026876595230E-15   0.00000000000000E+00   0.00000000000000E+00
      0.00000000000000E+00   0.00000000000000E+00  -1.03635423281117E-18  -5.96850702200420E-17  -6.07214244528531E-17
     -1.34133875712329E-15  -1.50000000000000E+00  -1.50000000000000E+00   0.00000000000000E+00   0.00000000000000E+00
     -2.29530630836542E-17  -8.47562277777555E-16  -8.70515340861209E-16  -1.93893000882901E-15
      4.00000000000000E-02
      8.00000000000000E-01   8.00000000000000E-01   0.00000000000000E+00   0.00000000000000E+00   1.02289849308291E-15
     -1.84373448057708E-19   1.02271411963485E-15   3.28421625291538E-15   0.00000000000000E+00   0.00000000000000E+00
      0.00000000000000E+00   0.00000000000000E+00  -1.03635399501523E-18  -5.96374154329478E-17  -6.06737694279630E-17
     -1.34065372398493E-15  -2.00000000000000E+00  -2.00000000000000E+00   0.00000000000000E+00   0.00000000000000E+00
     -2.29532164180571E-17  -9.39087133788828E-16  -9.62040350206885E-16  -1.94356252893045E-15
      5.00000000000000E-02
      8.00000000000000E-01   8.00000000000000E-01   0.00000000000000E+00   0.00000000000000E+00   1.09616283836290E-15
     -9.23135608543081E-19   1.09523970275435E-15   3.28730240509827E-15   0.00000000000000E+00   0.00000000000000E+00
      0.00000000000000E+00   0.00000000000000E+00  -1.03635342498298E-18  -5.98617852541908E-17  -6.08981386791738E-17
     -1.33900690728419E-15  -2.50000000000000E+00  -2.50000000000000E+00   0.00000000000000E+00   0.00000000000000E+00
     -2.29533733894129E-17  -1.01138819068577E-15  -1.03434156407518E-15  -1.94829549781407E-15
      6.00000000000000E-02
      8.00000000000000E-01   8.00000000000000E-01   0.00000000000000E+00   0.00000000000000E+00   1.15467512820085E-15
     -3.72786030593384E-19   1.15430234217025E-15   3.28894139357315E-15   0.00000000000000E+00   0.00000000000000E+00
      0.00000000000000E+00   0.00000000000000E+00  -1.03635231139757E-18  -6.05001273154549E-17  -6.15364796268524E-17
     -1.33576256340364E-15  -3.00000000000000E+00  -3.00000000000000E+00   0.00000000000000E+00   0.00000000000000E+00
     -2.29535356389853E-17  -1.06981232690442E-15  -1.09276586254340E-15  -1.95317883016950E-15
      7.00000000000000E-02
      8.00000000000000E-01   8.00000000000000E-01   0.00000000000000E+00   0.00000000000000E+00   1.20123551721390E-15
      4.09065783195287E-18   1.20532617504585E-15   3.28872330793733E-15   0.00000000000000E+00   0.00000000000000E+00
      0.00000000000000E+00   0.00000000000000E+00  -1.03635052865874E-18  -6.17380884871671E-17  -6.27744390158259E-17
     -1.33047456606662E-15  -3.50000000000000E+00  -3.50000000000000E+00   0.00000000000000E+00   0.00000000000000E+00
     -2.29537043701763E-17  -1.11959803165985E-15  -1.14255173603002E-15  -1.95824874187071E-15
      8.00000000000000E-02
      8.00000000000000E-01   8.00000000000000E-01   0.00000000000000E+00   0.00000000000000E+00   1.23739962372743E-15
     -3.94425559350758E-18   1.23345536813392E-15   3.28672197198775E-15   0.00000000000000E+00   0.00000000000000E+00
      0.00000000000000E+00   0.00000000000000E+00  -1.03634813898200E-18  -6.37587260230912E-17  -6.47950741620732E-17
     -1.32319135555594E-15  -4.00000000000000E+00  -4.00000000000000E+00   0.00000000000000E+00   0.00000000000000E+00
     -2.29538804367075E-17  -1.14570641353514E-15  -1.16866029397185E-15  -1.96353061643181E-15
      9.00000000000000E-02
      8.00000000000000E-01   8.00000000000000E-01   0.00000000000000E+00   0.00000000000000E+00   1.26582994782056E-15
      1.47405940493918E-17   1.28057054186995E-15   3.28336988120738E-15   0.00000000000000E+00   0.00000000000000E+00
      0.00000000000000E+00   0.00000000000000E+00  -1.03634532046089E-18  -6.65526420668907E-17  -6.75889873873516E-17
     -1.31432739629998E-15  -4.50000000000000E+00  -4.50000000000000E+00   0.00000000000000E+00   0.00000000000000E+00
     -2.29540644543740E-17  -1.19002749002823E-15  -1.21298155448260E-15  -1.96904248490740E-15
      1.00000000000000E-01
      8.00000000000000E-01   8.00000000000000E-01   0.00000000000000E+00   0.00000000000000E+00   1.28779377091878E-15
      1.91603151594330E-18   1.28970980243472E-15   3.27909163073709E-15   0.00000000000000E+00   0.00000000000000E+00
      0.00000000000000E+00   0.00000000000000E+00  -1.03634222725853E-18  -6.95599361377991E-17  -7.05962783650576E-17
     -1.30429662123714E-15  -5.00000000000000E+00  -5.00000000000000E+00   0.00000000000000E+00   0.00000000000000E+00
     -2.29542567978322E-17  -1.19615926727183E-15  -1.21911352406966E-15  -1.97479500949996E-15
      1.10000000000000E-01
      8.00000000000000E-01   8.00000000000000E-01   0.00000000000000E+00   0.00000000000000E+00   1.30392710674302E-15
     -2.55924699383691E-18   1.30136785974918E-15   3.27416503123567E-15   0.00000000000000E+00   0.00000000000000E+00
      0.00000000000000E+00   0.00000000000000E+00  -1.03633895090792E-18  -7.18264724322915E-17  -7.28628113831994E-17
     -1.29337216315344E-15  -5.50000000000000E+00  -5.50000000000000E+00   0.00000000000000E+00   0.00000000000000E+00
     -2.29544576447831E-17  -1.20555059072120E-15  -1.22850504836598E-15  -1.98079286808222E-15
      1.20000000000000E-01
      8.00000000000000E-01   8.00000000000000E-01   0.00000000000000E+00   0.00000000000000E+00   1.31544437206618E-15
     -2.20380953414130E-18   1.31324056253204E-15   3.26875380866500E-15   0.00000000000000E+00   0.00000000000000E+00
      0.00000000000000E+00   0.00000000000000E+00  -1.03633554084967E-18  -7.30277702878290E-17  -7.40641058286787E-17
     -1.28171660531525E-15  -6.00000000000000E+00  -6.00000000000000E+00   0.00000000000000E+00   0.00000000000000E+00
     -2.29546670564948E-17  -1.21622178964686E-15  -1.23917645670336E-15  -1.98703720334974E-15
      1.30000000000000E-01
      8.00000000000000E-01   8.00000000000000E-01   0.00000000000000E+00   0.00000000000000E+00   1.32395616957440E-15
      5.37316160870290E-18   1.32932933118310E-15   3.26295684159840E-15   0.00000000000000E+00   0.00000000000000E+00
      0.00000000000000E+00   0.00000000000000E+00  -1.03633202495555E-18  -7.34530006697106E-17  -7.44893326946661E-17
     -1.26942949433904E-15  -6.50000000000000E+00  -6.50000000000000E+00   0.00000000000000E+00   0.00000000000000E+00
     -2.29548850347960E-17  -1.23188511345364E-15  -1.25483999848843E-15  -1.99352734725935E-15
      1.40000000000000E-01
      8.00000000000000E-01   8.00000000000000E-01   0.00000000000000E+00   0.00000000000000E+00   1.33061774683340E-15
     -1.00548840285509E-17   1.32056286280485E-15   3.25683781291980E-15   0.00000000000000E+00   0.00000000000000E+00
      0.00000000000000E+00   0.00000000000000E+00  -1.03632842042994E-18  -7.34214205712282E-17  -7.44577489916581E-17
     -1.25657606955095E-15  -7.00000000000000E+00  -7.00000000000000E+00   0.00000000000000E+00   0.00000000000000E+00
     -2.29551115526102E-17  -1.22315000226058E-15  -1.24610511381319E-15  -2.00026174336885E-15
      1.50000000000000E-01
      8.00000000000000E-01   8.00000000000000E-01   0.00000000000000E+00   0.00000000000000E+00   1.33606039813691E-15
     -1.74555293967719E-18   1.33431484519724E-15   3.25044051593433E-15   0.00000000000000E+00   0.00000000000000E+00
      0.00000000000000E+00   0.00000000000000E+00  -1.03632473891794E-18  -7.31135039689086E-17  -7.41498287078265E-17
     -1.24320210268941E-15  -7.50000000000000E+00  -7.50000000000000E+00   0.00000000000000E+00   0.00000000000000E+00
     -2.29553465694171E-17  -1.23720966991999E-15  -1.26016501648941E-15  -2.00723841324493E-15
      1.60000000000000E-01
      8.00000000000000E-01   8.00000000000000E-01   0.00000000000000E+00   0.00000000000000E+00   1.34061083081477E-15
     -5.61264568954834E-18   1.33499818512522E-15   3.24379678590276E-15   0.00000000000000E+00   0.00000000000000E+00
      0.00000000000000E+00   0.00000000000000E+00  -1.03632098893199E-18  -7.26238173850258E-17  -7.36601383739578E-17
     -1.22934158869077E-15  -8.00000000000000E+00  -8.00000000000000E+00   0.00000000000000E+00   0.00000000000000E+00
     -2.29555900392298E-17  -1.23838245671203E-15  -1.26133804675126E-15  -2.01445519721199E-15
      1.70000000000000E-01
      8.00000000000000E-01   8.00000000000000E-01   0.00000000000000E+00   0.00000000000000E+00   1.34445775934427E-15
     -3.69540942396072E-18   1.34076234992031E-15   3.23693085068724E-15   0.00000000000000E+00   0.00000000000000E+00
      0.00000000000000E+00   0.00000000000000E+00  -1.03631717708315E-18  -7.19977515584883E-17  -7.30340687355714E-17
     -1.21502096688215E-15  -8.50000000000000E+00  -8.50000000000000E+00   0.00000000000000E+00   0.00000000000000E+00
     -2.29558419148989E-17  -1.24477243926984E-15  -1.26772828118473E-15  -2.02190988380510E-15
      1.80000000000000E-01
      8.00000000000000E-01   8.00000000000000E-01   0.00000000000000E+00   0.00000000000000E+00   1.34773868824700E-15
      9.54907684632146E-19   1.34869359593163E-15   3.22986188968054E-15   0.00000000000000E+00   0.00000000000000E+00
      0.00000000000000E+00   0.00000000000000E+00  -1.03631330875832E-18  -7.12478435178592E-17  -7.22841568266175E-17
     -1.20026160819590E-15  -9.00000000000000E+00  -9.00000000000000E+00   0.00000000000000E+00   0.00000000000000E+00
     -2.29561021504867E-17  -1.25345333695452E-15  -1.27640943910501E-15  -2.02960028148464E-15
      1.90000000000000E-01
      8.00000000000000E-01   8.00000000000000E-01   0.00000000000000E+00   0.00000000000000E+00   1.35057286561782E-15
      2.62546306887620E-19   1.35083541192471E-15   3.22260563231478E-15   0.00000000000000E+00   0.00000000000000E+00
      0.00000000000000E+00   0.00000000000000E+00  -1.03630938851986E-18  -7.03770361872805E-17  -7.14133455758004E-17
     -1.18508137459627E-15  -9.50000000000000E+00  -9.50000000000000E+00   0.00000000000000E+00   0.00000000000000E+00
     -2.29563707025751E-17  -1.25646569564633E-15  -1.27942206634891E-15  -2.03752425771850E-15
      2.00000000000000E-01
      8.00000000000000E-01   8.00000000000000E-01   0.00000000000000E+00   0.00000000000000E+00   1.35305738172757E-15
     -8.45451511015615E-18   1.34460286661741E-15   3.21517539987646E-15   0.00000000000000E+00   0.00000000000000E+00
      0.00000000000000E+00   0.00000000000000E+00  -1.03630542035382E-18  -6.93399762238429E-17  -7.03762816441968E-17
     -1.16949564187099E-15  -1.00000000000000E+01  -1.00000000000000E+01   0.00000000000000E+00   0.00000000000000E+00
     -2.29566475309044E-17  -1.25126993744231E-15  -1.27422658497322E-15  -2.04567975800548E-15
      2.10000000000000E-01
      8.00000000000000E-01   8.00000000000000E-01   0.00000000000000E+00   0.00000000000000E+00   1.35526087117649E-15
     -1.24732018878112E-17   1.34278766928868E-15   3.20758280704584E-15   0.00000000000000E+00   0.00000000000000E+00
      0.00000000000000E+00   0.00000000000000E+00  -1.03630140783008E-18  -6.79223588569314E-17  -6.89586602647615E-17
     -1.15351799478198E-15  -1.05000000000000E+01  -1.05000000000000E+01   0.00000000000000E+00   0.00000000000000E+00
     -2.29569325985743E-17  -1.25087207642534E-15  -1.27382900902392E-15  -2.05406481226386E-15
      2.20000000000000E-01
      8.00000000000000E-01   8.00000000000000E-01   0.00000000000000E+00   0.00000000000000E+00   1.35724924582988E-15
      7.58878351528902E-18   1.36483802934516E-15   3.19983825381475E-15   0.00000000000000E+00   0.00000000000000E+00
      0.00000000000000E+00   0.00000000000000E+00  -1.03629735420938E-18  -6.54351513503973E-17  -6.64714487046067E-17
     -1.13716072003682E-15  -1.10000000000000E+01  -1.10000000000000E+01   0.00000000000000E+00   0.00000000000000E+00
     -2.29572258720230E-17  -1.27540935476853E-15  -1.29836658064056E-15  -2.06267753377792E-15
      2.30000000000000E-01
      8.00000000000000E-01   8.00000000000000E-01   0.00000000000000E+00   0.00000000000000E+00   1.35908483298491E-15
     -4.17872111819853E-18   1.35490611186671E-15   3.19195129280176E-15   0.00000000000000E+00   0.00000000000000E+00
      0.00000000000000E+00   0.00000000000000E+00  -1.03629326251824E-18  -5.94721915649340E-17  -6.05084848274522E-17
     -1.12043517828388E-15  -1.15000000000000E+01  -1.15000000000000E+01   0.00000000000000E+00   0.00000000000000E+00
     -2.29575273208581E-17  -1.27144009971840E-15  -1.29439762703926E-15  -2.07151611451788E-15
      2.40000000000000E-01
      8.00000000000000E-01   8.00000000000000E-01   0.00000000000000E+00   0.00000000000000E+00   1.36080782314961E-15
      5.12740430542138E-18   1.36593522745503E-15   3.18393092803428E-15   0.00000000000000E+00   0.00000000000000E+00
      0.00000000000000E+00   0.00000000000000E+00  -1.03628913560483E-18  -4.21767595274731E-17  -4.32130486630779E-17
     -1.10335210855838E-15  -1.20000000000000E+01  -1.20000000000000E+01   0.00000000000000E+00   0.00000000000000E+00
     -2.29578369176752E-17  -1.29976434187428E-15  -1.32272217879195E-15  -2.08057881947590E-15
      2.50000000000000E-01
      8.00000000000000E-01   8.00000000000000E-01   0.00000000000000E+00   0.00000000000000E+00   1.36244379584525E-15
     -7.30829008665655E-18   1.35513550575859E-15   3.17578588175552E-15   0.00000000000000E+00   0.00000000000000E+00
      0.00000000000000E+00   0.00000000000000E+00  -1.03628497618316E-18   1.21054758704678E-17   1.10691908942847E-17
     -1.08592190009839E-15  -1.25000000000000E+01  -1.25000000000000E+01   0.00000000000000E+00   0.00000000000000E+00
     -2.29581546378825E-17  -1.34324654201499E-15  -1.36620469665287E-15  -2.08986398165713E-15
      2.60000000000000E-01
      8.00000000000000E-01   8.00000000000000E-01   0.00000000000000E+00   0.00000000000000E+00   1.36400909692643E-15
     -2.77047035397294E-17   1.33630439338670E-15   3.16752485336568E-15   0.00000000000000E+00   0.00000000000000E+00
      0.00000000000000E+00   0.00000000000000E+00  -1.03628078687011E-18   1.85038374274568E-16   1.84002093487698E-16
     -1.06815485474915E-15  -1.30000000000000E+01  -1.30000000000000E+01   0.00000000000000E+00   0.00000000000000E+00
     -2.29584804595908E-17  -1.49734800641481E-15  -1.52030648687440E-15  -2.09936999861654E-15
      2.70000000000000E-01
      8.00000000000000E-01   8.00000000000000E-01   0.00000000000000E+00   0.00000000000000E+00   1.36551068571082E-15
      3.33716003866519E-17   1.39888228609748E-15   3.15915678740715E-15   0.00000000000000E+00   0.00000000000000E+00
      0.00000000000000E+00   0.00000000000000E+00  -1.03627657021649E-18   7.30936690712707E-16   7.29900414142490E-16
     -1.05006145647266E-15  -1.35000000000000E+01  -1.35000000000000E+01   0.00000000000000E+00   0.00000000000000E+00
     -2.29588143635621E-17  -2.10582388587641E-15  -2.12878270023997E-15  -2.10909533093449E-15
      2.80000000000000E-01
      8.00000000000000E-01   8.00000000000000E-01   0.00000000000000E+00   0.00000000000000E+00   1.36694509571700E-15
     -2.47602808583704E-17   1.34218481485863E-15   3.15069116375047E-15   0.00000000000000E+00   0.00000000000000E+00
      0.00000000000000E+00   0.00000000000000E+00  -1.03627232872640E-18   2.42295912043917E-15   2.42192284811045E-15
     -1.03165266100912E-15  -1.40000000000000E+01  -1.40000000000000E+01   0.00000000000000E+00   0.00000000000000E+00
     -2.29591563332297E-17  -3.74114850663585E-15  -3.76410766296908E-15  -2.11903850274135E-15
      2.90000000000000E-01
      8.00000000000000E-01   8.00000000000000E-01   0.00000000000000E+00   0.00000000000000E+00   1.36829753809059E-15
     -2.83699017020787E-17   1.33992763638851E-15   3.14213832151911E-15   0.00000000000000E+00   0.00000000000000E+00
      0.00000000000000E+00   0.00000000000000E+00  -1.03626806483195E-18   7.55230650139569E-15   7.55127023333086E-15
     -1.01294021719873E-15  -1.45000000000000E+01  -1.45000000000000E+01   0.00000000000000E+00   0.00000000000000E+00
     -2.29595063547972E-17  -8.86823836336460E-15  -8.89119786971940E-15  -2.12919810432038E-15
      3.00000000000000E-01
      8.00000000000000E-01   8.00000000000000E-01   0.00000000000000E+00   0.00000000000000E+00   1.36954184542551E-15
      1.10983411483546E-17   1.38064018657387E-15   3.13350982842835E-15   0.00000000000000E+00   0.00000000000000E+00
      0.00000000000000E+00   0.00000000000000E+00  -1.03626378067641E-18   2.27260719227364E-14   2.27250356589557E-14
     -9.93937031399576E-16  -1.50000000000000E+01  -1.50000000000000E+01   0.00000000000000E+00   0.00000000000000E+00
     -2.29598644174185E-17  -2.40827159811122E-14  -2.41056758455296E-14  -2.13957279702878E-15
      3.10000000000000E-01
      8.00000000000000E-01   8.00000000000000E-01   0.00000000000000E+00   0.00000000000000E+00   1.37063673291559E-15
     -1.93874534120462E-17   1.35124927950355E-15   3.12481891010745E-15   0.00000000000000E+00   0.00000000000000E+00
      0.00000000000000E+00   0.00000000000000E+00  -1.03625947709024E-18   6.64519930581877E-14   6.64509567987106E-14
     -9.74657588439752E-16  -1.55000000000000E+01  -1.55000000000000E+01   0.00000000000000E+00   0.00000000000000E+00
     -2.29602305134891E-17  -6.77792458477009E-14  -6.78022060782144E-14  -2.15016132166769E-15
      3.20000000000000E-01
      8.00000000000000E-01   8.00000000000000E-01   0.00000000000000E+00   0.00000000000000E+00   1.37151230456382E-15
     -3.01197712800669E-17   1.34139253328375E-15   3.11608096250232E-15   0.00000000000000E+00   0.00000000000000E+00
      0.00000000000000E+00   0.00000000000000E+00  -1.03625514938440E-18   1.88997639924415E-13   1.88996603669266E-13
     -9.55118448669445E-16  -1.60000000000000E+01  -1.60000000000000E+01   0.00000000000000E+00   0.00000000000000E+00
     -2.29606046392075E-17  -1.90315035597911E-13  -1.90337996202550E-13  -2.16096251383287E-15
      3.30000000000000E-01
      8.00000000000000E-01   8.00000000000000E-01   0.00000000000000E+00   0.00000000000000E+00   1.37203629816712E-15
      1.08862992878064E-17   1.38292259745492E-15   3.10731419058917E-15   0.00000000000000E+00   0.00000000000000E+00
      0.00000000000000E+00   0.00000000000000E+00  -1.03625077167114E-18   5.22478891014543E-13   5.22477854763772E-13
     -9.35338855022080E-16  -1.65000000000000E+01  -1.65000000000000E+01   0.00000000000000E+00   0.00000000000000E+00
     -2.29609867956921E-17  -5.23837816374432E-13  -5.23860777361228E-13  -2.17197533556709E-15
      3.40000000000000E-01
      8.00000000000000E-01   8.00000000000000E-01   0.00000000000000E+00   0.00000000000000E+00   1.37193599850175E-15
      2.30788098211161E-17   1.39501480832287E-15   3.09854045882768E-15   0.00000000000000E+00   0.00000000000000E+00
      0.00000000000000E+00   0.00000000000000E+00  -1.03624624458234E-18   1.40217908927678E-12   1.40217805303054E-12
     -9.15341513336368E-16  -1.70000000000000E+01  -1.70000000000000E+01   0.00000000000000E+00   0.00000000000000E+00
     -2.29613769914771E-17  -1.40355010646187E-12  -1.40357306783886E-12  -2.18319894549132E-15
      3.50000000000000E-01
      8.00000000000000E-01   8.00000000000000E-01   0.00000000000000E+00   0.00000000000000E+00   1.37062877427173E-15
     -9.25011504486013E-18   1.36137865922687E-15   3.08978651889955E-15   0.00000000000000E+00   0.00000000000000E+00
      0.00000000000000E+00   0.00000000000000E+00  -1.03624124298733E-18   3.64767707268815E-12   3.64767603644691E-12
     -8.95153662850220E-16  -1.75000000000000E+01  -1.75000000000000E+01   0.00000000000000E+00   0.00000000000000E+00
     -2.29617752480954E-17  -3.64901445333088E-12  -3.64903741510613E-12  -2.19463285604933E-15
      3.60000000000000E-01
      8.00000000000000E-01   8.00000000000000E-01   0.00000000000000E+00   0.00000000000000E+00   1.36688499114627E-15
      3.16107013486229E-17   1.39849569249490E-15   3.08108591682209E-15   0.00000000000000E+00   0.00000000000000E+00