DF-ISE text

Info {
  version   = 1.0
  type      = xyplot
  datasets  = [
    "time"
    "Ntop OuterVoltage" "Ntop InnerVoltage" "Ntop QuasiFermiPotential" "Ntop DisplacementCurrent" "Ntop eCurrent"
    "Ntop hCurrent" "Ntop TotalCurrent" "Ntop Charge" "Ptop OuterVoltage" "Ptop InnerVoltage"
    "Ptop QuasiFermiPotential" "Ptop DisplacementCurrent" "Ptop eCurrent" "Ptop hCurrent" "Ptop TotalCurrent"
    "Ptop Charge" "Pbot OuterVoltage" "Pbot InnerVoltage" "Pbot QuasiFermiPotential" "Pbot DisplacementCurrent"
    "Pbot eCurrent" "Pbot hCurrent" "Pbot TotalCurrent" "Pbot Charge" ]
  functions = [
    Time
    OuterVoltage InnerVoltage QuasiFermiPotential DisplacementCurrent eCurrent
    hCurrent TotalCurrent Charge OuterVoltage InnerVoltage
    QuasiFermiPotential DisplacementCurrent eCurrent hCurrent TotalCurrent
    Charge OuterVoltage InnerVoltage QuasiFermiPotential DisplacementCurrent
    eCurrent hCurrent TotalCurrent Charge ]
}

Data {
      0.00000000000000E+00
      0.00000000000000E+00   0.00000000000000E+00   0.00000000000000E+00   0.00000000000000E+00   1.01206553893647E-25
     -4.57853512538688E-18  -4.57853502418033E-18   2.75943837527459E-15   0.00000000000000E+00   0.00000000000000E+00
      0.00000000000000E+00   0.00000000000000E+00  -1.01179950492523E-25   2.10990332957416E-19   2.10990231777466E-19
     -8.41735194254096E-16   0.00000000000000E+00   0.00000000000000E+00   0.00000000000000E+00   0.00000000000000E+00
     -2.66191888898050E-29   4.36754479242948E-18   4.36754479240286E-18  -1.91770318102049E-15
      0.00000000000000E+00
      0.00000000000000E+00   0.00000000000000E+00   0.00000000000000E+00   0.00000000000000E+00   1.59471792528487E-26
     -2.36728579015463E-19  -2.36728563068283E-19   2.75943837537797E-15   0.00000000000000E+00   0.00000000000000E+00
      0.00000000000000E+00   0.00000000000000E+00  -1.59483251769894E-26   6.34926559417409E-23   6.34767076165639E-23
     -8.41735194254101E-16   0.00000000000000E+00   0.00000000000000E+00   0.00000000000000E+00   0.00000000000000E+00
      1.64899814687540E-30   2.36665086359018E-19   2.36665086360667E-19  -1.91770318112387E-15
      1.00000000000000E-01
      8.00000000000000E-02   8.00000000000000E-02   0.00000000000000E+00   0.00000000000000E+00   1.49615195248952E-16
      4.85655407007721E-19   1.50100850655960E-16   2.83563977272112E-15   0.00000000000000E+00   0.00000000000000E+00
      0.00000000000000E+00   0.00000000000000E+00  -9.93450720675821E-19  -1.36044327376478E-17  -1.45978834583236E-17
     -9.17193794226722E-16   0.00000000000000E+00   0.00000000000000E+00   0.00000000000000E+00   0.00000000000000E+00
     -2.28396109801852E-17  -1.12663356217451E-16  -1.35502967197636E-16  -1.91844597849440E-15
      2.00000000000000E-01
      1.60000000000000E-01   1.60000000000000E-01   0.00000000000000E+00   0.00000000000000E+00   2.14849287780169E-16
      8.21875035542940E-19   2.15671162815712E-16   2.90833048690009E-15   0.00000000000000E+00   0.00000000000000E+00
      0.00000000000000E+00   0.00000000000000E+00  -1.03470388381197E-18  -2.11022234862254E-17  -2.21369273700373E-17
     -9.89142020614418E-16   0.00000000000000E+00   0.00000000000000E+00   0.00000000000000E+00   0.00000000000000E+00
     -2.29524633394875E-17  -1.70581772106187E-16  -1.93534235445674E-16  -1.91918846628568E-15
      3.00000000000000E-01
      2.40000000000000E-01   2.40000000000000E-01   0.00000000000000E+00   0.00000000000000E+00   2.67744301525336E-16
      3.86738714388879E-19   2.68131040239725E-16   2.97814748733096E-15   0.00000000000000E+00   0.00000000000000E+00
      0.00000000000000E+00   0.00000000000000E+00  -1.03625113624151E-18  -2.75507312125384E-17  -2.85869823487799E-17
     -1.05821661424181E-15   0.00000000000000E+00   0.00000000000000E+00   0.00000000000000E+00   0.00000000000000E+00
     -2.29524423937185E-17  -2.16591615497226E-16  -2.39544057890945E-16  -1.91993087308915E-15
      4.00000000000000E-01
      3.20000000000000E-01   3.20000000000000E-01   0.00000000000000E+00   0.00000000000000E+00   3.14563247404426E-16
      5.18305569685113E-19   3.15081552974111E-16   3.04551776075856E-15   0.00000000000000E+00   0.00000000000000E+00
      0.00000000000000E+00   0.00000000000000E+00  -1.03630577587851E-18  -3.34290216599207E-17  -3.44653274357992E-17
     -1.12484454548875E-15   0.00000000000000E+00   0.00000000000000E+00   0.00000000000000E+00   0.00000000000000E+00
     -2.29524636556076E-17  -2.57663761882705E-16  -2.80616225538312E-16  -1.92067321526981E-15
      5.00000000000000E-01
      4.00000000000000E-01   4.00000000000000E-01   0.00000000000000E+00   0.00000000000000E+00   3.57453167896498E-16
     -6.02867617128374E-20   3.57392881134785E-16   3.11071848302983E-15   0.00000000000000E+00   0.00000000000000E+00
      0.00000000000000E+00   0.00000000000000E+00  -1.03631545211967E-18  -3.89281340967349E-17  -3.99644495488546E-17
     -1.18930305510991E-15   0.00000000000000E+00   0.00000000000000E+00   0.00000000000000E+00   0.00000000000000E+00
     -2.29524876671153E-17  -2.94475943918815E-16  -3.17428431585930E-16  -1.92141542791992E-15
      6.00000000000000E-01
      4.80000000000000E-01   4.80000000000000E-01   0.00000000000000E+00   0.00000000000000E+00   3.97600102413487E-16
     -4.77161672686383E-19   3.97122940740801E-16   3.17390879679585E-15   0.00000000000000E+00   0.00000000000000E+00
      0.00000000000000E+00   0.00000000000000E+00  -1.03632397755262E-18  -4.41373408546303E-17  -4.51736648321829E-17
     -1.25175137263031E-15   0.00000000000000E+00   0.00000000000000E+00   0.00000000000000E+00   0.00000000000000E+00
     -2.29525117994591E-17  -3.28996764109158E-16  -3.51949275908618E-16  -1.92215742416554E-15
      7.00000000000000E-01
      5.60000000000000E-01   5.60000000000000E-01   0.00000000000000E+00   0.00000000000000E+00   4.35685753382353E-16
      4.44563105388169E-19   4.36130316487741E-16   3.23514369098346E-15   0.00000000000000E+00   0.00000000000000E+00
      0.00000000000000E+00   0.00000000000000E+00  -1.03633195710368E-18  -4.91939966652722E-17  -5.02303286223759E-17
     -1.31224457133877E-15   0.00000000000000E+00   0.00000000000000E+00   0.00000000000000E+00   0.00000000000000E+00
     -2.29525359629715E-17  -3.62947451902393E-16  -3.85899987865365E-16  -1.92289911964470E-15
      8.00000000000000E-01
      6.40000000000000E-01   6.40000000000000E-01   0.00000000000000E+00   0.00000000000000E+00   4.72073380541645E-16
      5.64576311207683E-20   4.72129838172766E-16   3.29437818786643E-15   0.00000000000000E+00   0.00000000000000E+00
      0.00000000000000E+00   0.00000000000000E+00  -1.03633957936516E-18  -5.42226354434669E-17  -5.52589750228321E-17
     -1.37073774786985E-15   0.00000000000000E+00   0.00000000000000E+00   0.00000000000000E+00   0.00000000000000E+00
     -2.29525601474364E-17  -3.93918303002498E-16  -4.16870863149934E-16  -1.92364043999658E-15
      9.00000000000000E-01
      7.20000000000000E-01   7.20000000000000E-01   0.00000000000000E+00   0.00000000000000E+00   5.07008001326049E-16
     -5.85390423881795E-19   5.06422610902167E-16   3.35147606172357E-15   0.00000000000000E+00   0.00000000000000E+00
      0.00000000000000E+00   0.00000000000000E+00  -1.03634664780474E-18  -5.92979908390443E-17  -6.03343374868490E-17
     -1.42709474301010E-15   0.00000000000000E+00   0.00000000000000E+00   0.00000000000000E+00   0.00000000000000E+00
     -2.29525843467665E-17  -4.23135689068551E-16  -4.46088273415317E-16  -1.92438131871347E-15
      1.00000000000000E+00
      8.00000000000000E-01   8.00000000000000E-01   0.00000000000000E+00   0.00000000000000E+00   5.40778489444500E-16
      7.34436320483196E-19   5.41512925764984E-16   3.40625482981568E-15   0.00000000000000E+00   0.00000000000000E+00
      0.00000000000000E+00   0.00000000000000E+00  -1.03635297656871E-18  -6.46115006953621E-17  -6.56478536719308E-17
     -1.48113314358228E-15   0.00000000000000E+00   0.00000000000000E+00   0.00000000000000E+00   0.00000000000000E+00
     -2.29526085556154E-17  -4.52912463537438E-16  -4.75865072093053E-16  -1.92512168623341E-15
      0.00000000000000E+00
      8.00000000000000E-01   8.00000000000000E-01   0.00000000000000E+00   0.00000000000000E+00   5.40778489547654E-16
      4.68765956557289E-19   5.41247255504211E-16   3.40625482981568E-15   0.00000000000000E+00   0.00000000000000E+00
      0.00000000000000E+00   0.00000000000000E+00  -1.03635307973097E-18  -6.46147652276319E-17  -6.56511183073629E-17
     -1.48113314358228E-15   0.00000000000000E+00   0.00000000000000E+00   0.00000000000000E+00   0.00000000000000E+00
     -2.29526085556153E-17  -4.52643528641233E-16  -4.75596137196848E-16  -1.92512168623341E-15
      1.00000000000000E-02
      8.00000000000000E-01   8.00000000000000E-01   0.00000000000000E+00   0.00000000000000E+00   6.95429894337349E-16
     -2.60966302268068E-18   6.92820231314668E-16   3.41085312252315E-15   0.00000000000000E+00   0.00000000000000E+00
      0.00000000000000E+00   0.00000000000000E+00  -1.03635307409825E-18  -6.40020720778875E-17  -6.50384251519857E-17
     -1.48111523829508E-15  -5.00000000000000E-01  -5.00000000000000E-01   0.00000000000000E+00   0.00000000000000E+00
     -2.29527595378948E-17  -6.04829046624788E-16  -6.27781806162683E-16  -1.92973788422809E-15
      2.00000000000000E-02
      8.00000000000000E-01   8.00000000000000E-01   0.00000000000000E+00   0.00000000000000E+00   8.23949008420877E-16
      2.88211098990865E-19   8.24237219519868E-16   3.41536995466327E-15   0.00000000000000E+00   0.00000000000000E+00
      0.00000000000000E+00   0.00000000000000E+00  -1.03635304859846E-18  -6.35740620193112E-17  -6.46104150679096E-17
     -1.48103419771871E-15  -1.00000000000000E+00  -1.00000000000000E+00   0.00000000000000E+00   0.00000000000000E+00
     -2.29529113668123E-17  -7.36673893085146E-16  -7.59626804451958E-16  -1.93433575694457E-15
      3.00000000000000E-02
      8.00000000000000E-01   8.00000000000000E-01   0.00000000000000E+00   0.00000000000000E+00   9.34999605161179E-16
      3.42993824930649E-18   9.38429543410486E-16   3.41966110098437E-15   0.00000000000000E+00   0.00000000000000E+00
      0.00000000000000E+00   0.00000000000000E+00  -1.03635295453405E-18  -6.33171276445203E-17  -6.43534805990543E-17
     -1.48073534814623E-15  -1.50000000000000E+00  -1.50000000000000E+00   0.00000000000000E+00   0.00000000000000E+00
     -2.29530629429358E-17  -8.51122999868496E-16  -8.74076062811432E-16  -1.93892575283814E-15
      4.00000000000000E-02
      8.00000000000000E-01   8.00000000000000E-01   0.00000000000000E+00   0.00000000000000E+00   1.02780219178296E-15
     -9.42940113162160E-19   1.02685925166980E-15   3.42339003443004E-15   0.00000000000000E+00   0.00000000000000E+00
      0.00000000000000E+00   0.00000000000000E+00  -1.03635267285462E-18  -6.32985038633564E-17  -6.43348565362110E-17
     -1.47984017192071E-15  -2.00000000000000E+00  -2.00000000000000E+00   0.00000000000000E+00   0.00000000000000E+00
     -2.29532159983714E-17  -9.39571179135215E-16  -9.62524395133586E-16  -1.94354986250932E-15
      5.00000000000000E-02
      8.00000000000000E-01   8.00000000000000E-01   0.00000000000000E+00   0.00000000000000E+00   1.10272837497824E-15
      2.62155014039404E-19   1.10299052999228E-15   3.42591799054349E-15   0.00000000000000E+00   0.00000000000000E+00
      0.00000000000000E+00   0.00000000000000E+00  -1.03635198698213E-18  -6.36430266518580E-17  -6.46793786388402E-17
     -1.47765321138695E-15  -2.50000000000000E+00  -2.50000000000000E+00   0.00000000000000E+00   0.00000000000000E+00
     -2.29533723696808E-17  -1.01535777898376E-15  -1.03831115135344E-15  -1.94826477915654E-15
      6.00000000000000E-02
      8.00000000000000E-01   8.00000000000000E-01   0.00000000000000E+00   0.00000000000000E+00   1.16369974265463E-15
     -2.56758780853060E-19   1.16344298387378E-15   3.42641520238414E-15   0.00000000000000E+00   0.00000000000000E+00
      0.00000000000000E+00   0.00000000000000E+00  -1.03635063636397E-18  -6.45740595607560E-17  -6.56104101971199E-17
     -1.47329846295855E-15  -3.00000000000000E+00  -3.00000000000000E+00   0.00000000000000E+00   0.00000000000000E+00
     -2.29535335742771E-17  -1.07487904010238E-15  -1.09783257367666E-15  -1.95311673942558E-15
      7.00000000000000E-02
      8.00000000000000E-01   8.00000000000000E-01   0.00000000000000E+00   0.00000000000000E+00   1.21286374430622E-15
      8.55051589555224E-18   1.22141426020178E-15   3.42439972034877E-15   0.00000000000000E+00   0.00000000000000E+00
      0.00000000000000E+00   0.00000000000000E+00  -1.03634850419846E-18  -6.63804526275063E-17  -6.74168011317048E-17
     -1.46625763557179E-15  -3.50000000000000E+00  -3.50000000000000E+00   0.00000000000000E+00   0.00000000000000E+00
     -2.29537008177340E-17  -1.13104375825234E-15  -1.15399745907007E-15  -1.95814208477699E-15
      8.00000000000000E-02
      8.00000000000000E-01   8.00000000000000E-01   0.00000000000000E+00   0.00000000000000E+00   1.25126405663765E-15
      1.79721183067178E-18   1.25306126846832E-15   3.42017079324875E-15   0.00000000000000E+00   0.00000000000000E+00
      0.00000000000000E+00   0.00000000000000E+00  -1.03634573648016E-18  -6.92724696668269E-17  -7.03088154033071E-17
     -1.45679996948285E-15  -4.00000000000000E+00  -4.00000000000000E+00   0.00000000000000E+00   0.00000000000000E+00
     -2.29538751061528E-17  -1.15979857795886E-15  -1.18275245306502E-15  -1.96337082376590E-15
      9.00000000000000E-02
      8.00000000000000E-01   8.00000000000000E-01   0.00000000000000E+00   0.00000000000000E+00   1.28085013417063E-15
     -8.13779143296343E-19   1.28003635502734E-15   3.41440811347671E-15   0.00000000000000E+00   0.00000000000000E+00
      0.00000000000000E+00   0.00000000000000E+00  -1.03634257220298E-18  -7.29356312257835E-17  -7.39719737979865E-17
     -1.44558304799123E-15  -4.50000000000000E+00  -4.50000000000000E+00   0.00000000000000E+00   0.00000000000000E+00
     -2.29540571903852E-17  -1.18311032403897E-15  -1.20606438122935E-15  -1.96882506548548E-15
      1.00000000000000E-01
      8.00000000000000E-01   8.00000000000000E-01   0.00000000000000E+00   0.00000000000000E+00   1.30243231199289E-15
      9.10385099044044E-18   1.31153616298333E-15   3.40763865055389E-15   0.00000000000000E+00   0.00000000000000E+00
      0.00000000000000E+00   0.00000000000000E+00  -1.03633917340794E-18  -7.61861334333379E-17  -7.72224726067458E-17
     -1.43312196122664E-15  -5.00000000000000E+00  -5.00000000000000E+00   0.00000000000000E+00   0.00000000000000E+00
     -2.29542474852054E-17  -1.21135944289138E-15  -1.23431369037658E-15  -1.97451668932725E-15
      1.10000000000000E-01
      8.00000000000000E-01   8.00000000000000E-01   0.00000000000000E+00   0.00000000000000E+00   1.31715809884344E-15
      7.92182783977831E-18   1.32507992668322E-15   3.40016382769796E-15   0.00000000000000E+00   0.00000000000000E+00
      0.00000000000000E+00   0.00000000000000E+00  -1.03633562224523E-18  -7.80576057917360E-17  -7.90939414139813E-17
     -1.41971349762278E-15  -5.50000000000000E+00  -5.50000000000000E+00   0.00000000000000E+00   0.00000000000000E+00
     -2.29544461663928E-17  -1.22303153910284E-15  -1.24598598526924E-15  -1.98045033007518E-15
      1.20000000000000E-01
      8.00000000000000E-01   8.00000000000000E-01   0.00000000000000E+00   0.00000000000000E+00   1.32724895365313E-15
     -4.19098982526573E-18   1.32305796382786E-15   3.39214963804316E-15   0.00000000000000E+00   0.00000000000000E+00
      0.00000000000000E+00   0.00000000000000E+00  -1.03633195943552E-18  -7.87251162683297E-17  -7.97614482277652E-17
     -1.40552273943147E-15  -6.00000000000000E+00  -6.00000000000000E+00   0.00000000000000E+00   0.00000000000000E+00
     -2.29546532869162E-17  -1.22034186231318E-15  -1.24329651560009E-15  -1.98662689861170E-15
      1.30000000000000E-01
      8.00000000000000E-01   8.00000000000000E-01   0.00000000000000E+00   0.00000000000000E+00   1.33464217627680E-15
      8.33968912354585E-19   1.33547614518915E-15   3.38369286796757E-15   0.00000000000000E+00   0.00000000000000E+00
      0.00000000000000E+00   0.00000000000000E+00  -1.03632820710819E-18  -7.86966762941840E-17  -7.97330045012921E-17
     -1.39064731474250E-15  -6.50000000000000E+00  -6.50000000000000E+00   0.00000000000000E+00   0.00000000000000E+00
     -2.29548688421814E-17  -1.23278827184567E-15  -1.25574314068786E-15  -1.99304555322507E-15
      1.40000000000000E-01
      8.00000000000000E-01   8.00000000000000E-01   0.00000000000000E+00   0.00000000000000E+00   1.34044340986919E-15
      3.28279688876142E-18   1.34372620675795E-15   3.37485403851706E-15   0.00000000000000E+00   0.00000000000000E+00
      0.00000000000000E+00   0.00000000000000E+00  -1.03632437877463E-18  -7.82863136701811E-17  -7.93226380489557E-17
     -1.37514940856166E-15  -7.00000000000000E+00  -7.00000000000000E+00   0.00000000000000E+00   0.00000000000000E+00
     -2.29550928008498E-17  -1.24144847590814E-15  -1.26440356870899E-15  -1.99970462995540E-15
      1.50000000000000E-01
      8.00000000000000E-01   8.00000000000000E-01   0.00000000000000E+00   0.00000000000000E+00   1.34520119784869E-15
     -9.37427011270254E-18   1.33582692773598E-15   3.36567307467808E-15   0.00000000000000E+00   0.00000000000000E+00
      0.00000000000000E+00   0.00000000000000E+00  -1.03632048356591E-18  -7.76379240633490E-17  -7.86742445469149E-17
     -1.35907099134582E-15  -7.50000000000000E+00  -7.50000000000000E+00   0.00000000000000E+00   0.00000000000000E+00
     -2.29553251194525E-17  -1.23419735806962E-15  -1.25715268318907E-15  -2.00660208333225E-15
      1.60000000000000E-01
      8.00000000000000E-01   8.00000000000000E-01   0.00000000000000E+00   0.00000000000000E+00   1.34918822904594E-15
     -1.57972650707638E-17   1.33339096397517E-15   3.35617716014744E-15   0.00000000000000E+00   0.00000000000000E+00
      0.00000000000000E+00   0.00000000000000E+00  -1.03631652815934E-18  -7.68259472987784E-17  -7.78622638269378E-17
     -1.34244145201258E-15  -8.00000000000000E+00  -8.00000000000000E+00   0.00000000000000E+00   0.00000000000000E+00
     -2.29555657497425E-17  -1.23257313439849E-15  -1.25552870014823E-15  -2.01373570813487E-15
      1.70000000000000E-01
      8.00000000000000E-01   8.00000000000000E-01   0.00000000000000E+00   0.00000000000000E+00   1.35256230016647E-15
     -1.30422987115303E-17   1.33952000145494E-15   3.34638500893368E-15   0.00000000000000E+00   0.00000000000000E+00
      0.00000000000000E+00   0.00000000000000E+00  -1.03631251774699E-18  -7.58761672086062E-17  -7.69124797263532E-17
     -1.32528174991004E-15  -8.50000000000000E+00  -8.50000000000000E+00   0.00000000000000E+00   0.00000000000000E+00
     -2.29558146426629E-17  -1.23965170708593E-15  -1.26260752172859E-15  -2.02110325902364E-15
      1.80000000000000E-01
      8.00000000000000E-01   8.00000000000000E-01   0.00000000000000E+00   0.00000000000000E+00   1.35543926528469E-15
     -1.52335117826378E-17   1.34020575350205E-15   3.33630938417399E-15   0.00000000000000E+00   0.00000000000000E+00
      0.00000000000000E+00   0.00000000000000E+00  -1.03630845657313E-18  -7.47975202174019E-17  -7.58338286739750E-17
     -1.30760686608482E-15  -9.00000000000000E+00  -9.00000000000000E+00   0.00000000000000E+00   0.00000000000000E+00
     -2.29560717505914E-17  -1.24141585307748E-15  -1.26437192482807E-15  -2.02870251808917E-15
      1.90000000000000E-01
      8.00000000000000E-01   8.00000000000000E-01   0.00000000000000E+00   0.00000000000000E+00   1.35790443259046E-15
      6.08390528452762E-19   1.35851282311892E-15   3.32595872024407E-15   0.00000000000000E+00   0.00000000000000E+00
      0.00000000000000E+00   0.00000000000000E+00  -1.03630434826109E-18  -7.35252734273038E-17  -7.45615777755649E-17
     -1.28942738615363E-15  -9.50000000000000E+00  -9.50000000000000E+00   0.00000000000000E+00   0.00000000000000E+00
     -2.29563370286564E-17  -1.26099490831469E-15  -1.28395124534335E-15  -2.03653133409044E-15
      2.00000000000000E-01
      8.00000000000000E-01   8.00000000000000E-01   0.00000000000000E+00   0.00000000000000E+00   1.36003348598643E-15
     -4.59827510831485E-18   1.35543521087811E-15   3.31533834797377E-15   0.00000000000000E+00   0.00000000000000E+00
      0.00000000000000E+00   0.00000000000000E+00  -1.03630019603531E-18  -7.18351252402682E-17  -7.28714254363035E-17
     -1.27075069949775E-15  -1.00000000000000E+01  -1.00000000000000E+01   0.00000000000000E+00   0.00000000000000E+00
     -2.29566104356022E-17  -1.25960717500621E-15  -1.28256378544181E-15  -2.04458764847601E-15
      2.10000000000000E-01
      8.00000000000000E-01   8.00000000000000E-01   0.00000000000000E+00   0.00000000000000E+00   1.36190777923489E-15
      1.47734677246871E-17   1.37668124695958E-15   3.30445171081172E-15   0.00000000000000E+00   0.00000000000000E+00
      0.00000000000000E+00   0.00000000000000E+00  -1.03629600290171E-18  -6.88655994682850E-17  -6.99018954711867E-17
     -1.25158218994695E-15  -1.05000000000000E+01  -1.05000000000000E+01   0.00000000000000E+00   0.00000000000000E+00
     -2.29568919346633E-17  -1.28382245955373E-15  -1.30677935148839E-15  -2.05286952086478E-15
      2.20000000000000E-01
      8.00000000000000E-01   8.00000000000000E-01   0.00000000000000E+00   0.00000000000000E+00   1.36358760208018E-15
     -7.39127897820462E-18   1.35619632310198E-15   3.29330192614275E-15   0.00000000000000E+00   0.00000000000000E+00
      0.00000000000000E+00   0.00000000000000E+00  -1.03629177182656E-18  -6.16125199861770E-17  -6.26488117580036E-17
     -1.23192676087061E-15  -1.10000000000000E+01  -1.10000000000000E+01   0.00000000000000E+00   0.00000000000000E+00
     -2.29571814948048E-17  -1.27059032984917E-15  -1.29354751134397E-15  -2.06137516527214E-15
      2.30000000000000E-01
      8.00000000000000E-01   8.00000000000000E-01   0.00000000000000E+00   0.00000000000000E+00   1.36511530557223E-15
      1.09598544140722E-17   1.37607515998630E-15   3.28189399685631E-15   0.00000000000000E+00   0.00000000000000E+00
      0.00000000000000E+00   0.00000000000000E+00  -1.03628750593701E-18  -3.96656414905809E-17  -4.07019289965179E-17
     -1.21179099146158E-15  -1.15000000000000E+01  -1.15000000000000E+01   0.00000000000000E+00   0.00000000000000E+00
     -2.29574790926336E-17  -1.31241575189715E-15  -1.33537323098978E-15  -2.07010300539473E-15
      2.40000000000000E-01
      8.00000000000000E-01   8.00000000000000E-01   0.00000000000000E+00   0.00000000000000E+00   1.36652280474376E-15
     -2.61313640644218E-18   1.36390966833732E-15   3.27023780182798E-15   0.00000000000000E+00   0.00000000000000E+00
      0.00000000000000E+00   0.00000000000000E+00  -1.03628320874255E-18   3.23440368527343E-17   3.13077536439917E-17
     -1.19118605196221E-15  -1.20000000000000E+01  -1.20000000000000E+01   0.00000000000000E+00   0.00000000000000E+00
     -2.29577847150067E-17  -1.37225963726630E-15  -1.39521742198131E-15  -2.07905174986578E-15
      2.50000000000000E-01
      8.00000000000000E-01   8.00000000000000E-01   0.00000000000000E+00   0.00000000000000E+00   1.36783152762990E-15
      2.62985861200989E-18   1.37046138624191E-15   3.25835155462107E-15   0.00000000000000E+00   0.00000000000000E+00
      0.00000000000000E+00   0.00000000000000E+00  -1.03627888433812E-18   2.71622772944965E-16   2.70586494060627E-16
     -1.17013108102416E-15  -1.25000000000000E+01  -1.25000000000000E+01   0.00000000000000E+00   0.00000000000000E+00
     -2.29580983618846E-17  -1.61808978194065E-15  -1.64104788030253E-15  -2.08822047359693E-15
      2.60000000000000E-01
      8.00000000000000E-01   8.00000000000000E-01   0.00000000000000E+00   0.00000000000000E+00   1.36905050929098E-15
      4.67337239988750E-19   1.36951784653097E-15   3.24626472108420E-15   0.00000000000000E+00   0.00000000000000E+00
      0.00000000000000E+00   0.00000000000000E+00  -1.03627453750277E-18   1.05654238649463E-15   1.05550611195713E-15
     -1.14865604984375E-15  -1.30000000000000E+01  -1.30000000000000E+01   0.00000000000000E+00   0.00000000000000E+00
     -2.29584200482551E-17  -2.40206553843985E-15  -2.42502395848810E-15  -2.09760867124046E-15
      2.70000000000000E-01
      8.00000000000000E-01   8.00000000000000E-01   0.00000000000000E+00   0.00000000000000E+00   1.37017502537078E-15
     -1.52561507743889E-17   1.35491887459639E-15   3.23401885990548E-15   0.00000000000000E+00   0.00000000000000E+00
      0.00000000000000E+00   0.00000000000000E+00  -1.03627017357873E-18   3.57410033837379E-15   3.57306406820022E-15
     -1.12680262171215E-15  -1.35000000000000E+01  -1.35000000000000E+01   0.00000000000000E+00   0.00000000000000E+00
     -2.29587498035940E-17  -4.90502419299300E-15  -4.92798294279659E-15  -2.10721623819333E-15
      2.80000000000000E-01
      8.00000000000000E-01   8.00000000000000E-01   0.00000000000000E+00   0.00000000000000E+00   1.37118654462726E-15
     -1.34830805975508E-17   1.35770346402971E-15   3.22166528731739E-15   0.00000000000000E+00   0.00000000000000E+00
      0.00000000000000E+00   0.00000000000000E+00  -1.03626579800233E-18   1.14333832975770E-14   1.14323470317790E-14
     -1.10462193196083E-15  -1.40000000000000E+01  -1.40000000000000E+01   0.00000000000000E+00   0.00000000000000E+00
     -2.29590876680147E-17  -1.27670914081408E-14  -1.27900504958088E-14  -2.11704335535655E-15
      2.90000000000000E-01
      8.00000000000000E-01   8.00000000000000E-01   0.00000000000000E+00   0.00000000000000E+00   1.37205182652738E-15
     -2.93826205844847E-18   1.36911356446894E-15   3.20926008241442E-15   0.00000000000000E+00   0.00000000000000E+00
      0.00000000000000E+00   0.00000000000000E+00  -1.03626141512861E-18   3.52464888264527E-14   3.52454525650376E-14
     -1.08216977636959E-15  -1.45000000000000E+01  -1.45000000000000E+01   0.00000000000000E+00   0.00000000000000E+00
     -2.29594336860381E-17  -3.65916066958205E-14  -3.66145661295066E-14  -2.12709030604483E-15
      3.00000000000000E-01
      8.00000000000000E-01   8.00000000000000E-01   0.00000000000000E+00   0.00000000000000E+00   1.37271517099239E-15
      3.19999691641277E-17   1.40471514015652E-15   3.19685855428822E-15   0.00000000000000E+00   0.00000000000000E+00
      0.00000000000000E+00   0.00000000000000E+00  -1.03625702460182E-18   1.05129317082133E-13   1.05128280825109E-13
     -1.05950125702230E-15  -1.50000000000000E+01  -1.50000000000000E+01   0.00000000000000E+00   0.00000000000000E+00
     -2.29597879004638E-17  -1.06510036177364E-13  -1.06532995965265E-13  -2.13735729726592E-15
      3.10000000000000E-01
      8.00000000000000E-01   8.00000000000000E-01   0.00000000000000E+00   0.00000000000000E+00   1.37307438080052E-15
     -2.59478400933609E-17   1.34712654070716E-15   3.18451140973874E-15   0.00000000000000E+00   0.00000000000000E+00
      0.00000000000000E+00   0.00000000000000E+00  -1.03625260806420E-18   3.03422519537762E-13   3.03421483285154E-13
     -1.03666705497296E-15  -1.55000000000000E+01  -1.55000000000000E+01   0.00000000000000E+00   0.00000000000000E+00
     -2.29601503487200E-17  -3.04745649675513E-13  -3.04768609825861E-13  -2.14784435476578E-15
      3.20000000000000E-01
      8.00000000000000E-01   8.00000000000000E-01   0.00000000000000E+00   0.00000000000000E+00   1.37292408559367E-15
      1.82958028359064E-17   1.39121988842957E-15   3.17226360446505E-15   0.00000000000000E+00   0.00000000000000E+00
      0.00000000000000E+00   0.00000000000000E+00  -1.03624808201433E-18   8.46661249599767E-13   8.46660213351685E-13
     -1.01371227792546E-15  -1.60000000000000E+01  -1.60000000000000E+01   0.00000000000000E+00   0.00000000000000E+00
     -2.29605210629531E-17  -8.48028472719054E-13  -8.48051433240117E-13  -2.15855132653958E-15
      3.30000000000000E-01
      8.00000000000000E-01   8.00000000000000E-01   0.00000000000000E+00   0.00000000000000E+00   1.37182927236252E-15
     -1.38376646223201E-17   1.35799160774020E-15   3.16015560322327E-15   0.00000000000000E+00   0.00000000000000E+00
      0.00000000000000E+00   0.00000000000000E+00  -1.03624315122476E-18   2.28157503953279E-12   2.28157400328963E-12
     -9.90677592043416E-16  -1.65000000000000E+01  -1.65000000000000E+01   0.00000000000000E+00   0.00000000000000E+00
     -2.29609000744509E-17  -2.28290903399729E-12  -2.28293199489736E-12  -2.16947801117986E-15
      3.40000000000000E-01
      8.00000000000000E-01   8.00000000000000E-01   0.00000000000000E+00   0.00000000000000E+00   1.36885878658926E-15
      2.87450680161256E-17   1.39760385460538E-15   3.14822638498929E-15   0.00000000000000E+00   0.00000000000000E+00
      0.00000000000000E+00   0.00000000000000E+00  -1.03623683605263E-18   5.93085317623587E-12   5.93085213999903E-12
     -9.67601929448379E-16  -1.70000000000000E+01  -1.70000000000000E+01   0.00000000000000E+00   0.00000000000000E+00
     -2.29612874240604E-17  -5.93222678256620E-12  -5.93224974385363E-12  -2.18062445554091E-15
      3.50000000000000E-01
      8.00000000000000E-01   8.00000000000000E-01   0.00000000000000E+00   0.00000000000000E+00   1.36208252194150E-15
      1.22320176427672E-17   1.37431453958426E-15   3.13651786492377E-15   0.00000000000000E+00   0.00000000000000E+00
      0.00000000000000E+00   0.00000000000000E+00  -1.03622691256086E-18   1.48525962814204E-11   1.48525952451934E-11
     -9.44526321219447E-16  -1.75000000000000E+01  -1.75000000000000E+01   0.00000000000000E+00   0.00000000000000E+00
     -2.29616831829304E-17  -1.48539465980498E-11  -1.48539695597330E-11  -2.19199154370432E-15
      3.60000000000000E-01
      8.00000000000000E-01   8.00000000000000E-01   0.00000000000000E+00   0.00000000000000E+00   1.34779525860930E-15
     -1.70447520847294E-18   1.34609078340083E-15   3.12508098044294E-15   0.00000000000000E+00   0.00000000000000E+00