DF-ISE text

Info {
  version   = 1.0
  type      = xyplot
  datasets  = [
    "time"
    "Ntop OuterVoltage" "Ntop InnerVoltage" "Ntop QuasiFermiPotential" "Ntop DisplacementCurrent" "Ntop eCurrent"
    "Ntop hCurrent" "Ntop TotalCurrent" "Ntop Charge" "Ptop OuterVoltage" "Ptop InnerVoltage"
    "Ptop QuasiFermiPotential" "Ptop DisplacementCurrent" "Ptop eCurrent" "Ptop hCurrent" "Ptop TotalCurrent"
    "Ptop Charge" "Pbot OuterVoltage" "Pbot InnerVoltage" "Pbot QuasiFermiPotential" "Pbot DisplacementCurrent"
    "Pbot eCurrent" "Pbot hCurrent" "Pbot TotalCurrent" "Pbot Charge" ]
  functions = [
    Time
    OuterVoltage InnerVoltage QuasiFermiPotential DisplacementCurrent eCurrent
    hCurrent TotalCurrent Charge OuterVoltage InnerVoltage
    QuasiFermiPotential DisplacementCurrent eCurrent hCurrent TotalCurrent
    Charge OuterVoltage InnerVoltage QuasiFermiPotential DisplacementCurrent
    eCurrent hCurrent TotalCurrent Charge ]
}

Data {
      0.00000000000000E+00
      0.00000000000000E+00   0.00000000000000E+00   0.00000000000000E+00   0.00000000000000E+00   2.32828700041849E-26
      8.34205615761296E-19   8.34205639044166E-19   1.14877703828299E-13   0.00000000000000E+00   0.00000000000000E+00
      0.00000000000000E+00   0.00000000000000E+00  -2.32864393445099E-26   9.27779313117721E-21   9.27776984473786E-21
     -6.91124949391035E-14   0.00000000000000E+00   0.00000000000000E+00   0.00000000000000E+00   0.00000000000000E+00
     -7.62108029824946E-30  -8.43483408881304E-19  -8.43483408888925E-19  -4.57652088891950E-14
      0.00000000000000E+00
      0.00000000000000E+00   0.00000000000000E+00   0.00000000000000E+00   0.00000000000000E+00   2.73110817163167E-26
     -1.04780662918474E-17  -1.04780662645364E-17   1.14877703973798E-13   0.00000000000000E+00   0.00000000000000E+00
      0.00000000000000E+00   0.00000000000000E+00  -2.71889450533232E-26   1.04769996925486E-17   1.04769996653596E-17
     -6.91124950846025E-14   0.00000000000000E+00   0.00000000000000E+00   0.00000000000000E+00   0.00000000000000E+00
     -2.35007205465831E-29   1.06659920046861E-21   1.06659917696788E-21  -4.57652088891950E-14
      1.00000000000000E-01
      8.00000000000000E-02   8.00000000000000E-02   0.00000000000000E+00   0.00000000000000E+00   1.54827497324101E-14
      1.98439253874049E-17   1.55025936577975E-14   1.21663608304330E-13   0.00000000000000E+00   0.00000000000000E+00
      0.00000000000000E+00   0.00000000000000E+00  -1.89256623095466E-16  -1.85938778067621E-15  -2.04864440377167E-15
     -7.57603005782368E-14   0.00000000000000E+00   0.00000000000000E+00   0.00000000000000E+00   0.00000000000000E+00
     -2.01837793254044E-15  -1.14355713214853E-14  -1.34539492540257E-14  -4.59033077260938E-14
      2.00000000000000E-01
      1.60000000000000E-01   1.60000000000000E-01   0.00000000000000E+00   0.00000000000000E+00   2.19596567624611E-14
      2.06564881695277E-17   2.19803132506306E-14   1.27637007597392E-13   0.00000000000000E+00   0.00000000000000E+00
      0.00000000000000E+00   0.00000000000000E+00  -1.96952439952281E-16  -2.38294236635924E-15  -2.57989480631152E-15
     -8.15964986041664E-14   0.00000000000000E+00   0.00000000000000E+00   0.00000000000000E+00   0.00000000000000E+00
     -2.11631637475720E-15  -1.72841020695618E-14  -1.94004184443190E-14  -4.60405089932270E-14
      3.00000000000000E-01
      2.40000000000000E-01   2.40000000000000E-01   0.00000000000000E+00   0.00000000000000E+00   2.66813371645358E-14
      2.07225074053434E-17   2.67020596719411E-14   1.33168606532926E-13   0.00000000000000E+00   0.00000000000000E+00
      0.00000000000000E+00   0.00000000000000E+00  -1.97180928462551E-16  -2.90269800413111E-15  -3.09987893259366E-15
     -8.69914475905697E-14   0.00000000000000E+00   0.00000000000000E+00   0.00000000000000E+00   0.00000000000000E+00
     -2.12695788673954E-15  -2.14752228526078E-14  -2.36021807393474E-14  -4.61771589423571E-14
      4.00000000000000E-01
      3.20000000000000E-01   3.20000000000000E-01   0.00000000000000E+00   0.00000000000000E+00   3.14048174760988E-14
      2.07537160254368E-17   3.14255711921243E-14   1.38422749827064E-13   0.00000000000000E+00   0.00000000000000E+00
      0.00000000000000E+00   0.00000000000000E+00  -1.97189737955486E-16  -3.83255039382380E-15  -4.02974013177928E-15
     -9.21093542214827E-14   0.00000000000000E+00   0.00000000000000E+00   0.00000000000000E+00   0.00000000000000E+00
     -2.13360075753094E-15  -2.52622303028140E-14  -2.73958310603450E-14  -4.63133956055817E-14
      5.00000000000000E-01
      4.00000000000000E-01   4.00000000000000E-01   0.00000000000000E+00   0.00000000000000E+00   3.59342186896677E-14
      2.07230787659791E-17   3.59549417684337E-14   1.43441308969343E-13   0.00000000000000E+00   0.00000000000000E+00
      0.00000000000000E+00   0.00000000000000E+00  -1.97193105350124E-16  -4.82822063576634E-15  -5.02541374111646E-15
     -9.69920984454711E-14   0.00000000000000E+00   0.00000000000000E+00   0.00000000000000E+00   0.00000000000000E+00
     -2.14003883290398E-15  -2.87894891944133E-14  -3.09295280273173E-14  -4.64492105238716E-14
      6.00000000000000E-01
      4.80000000000000E-01   4.80000000000000E-01   0.00000000000000E+00   0.00000000000000E+00   3.95054194646031E-14
      2.06991472493731E-17   3.95261186118524E-14   1.48217100474625E-13   0.00000000000000E+00   0.00000000000000E+00
      0.00000000000000E+00   0.00000000000000E+00  -1.97197143914298E-16  -5.38346936594231E-15  -5.58066650985661E-15
     -1.01632510836434E-13   0.00000000000000E+00   0.00000000000000E+00   0.00000000000000E+00   0.00000000000000E+00
     -2.14644322319801E-15  -3.17990088787979E-14  -3.39454521019959E-14  -4.65845896381906E-14
      7.00000000000000E-01
      5.60000000000000E-01   5.60000000000000E-01   0.00000000000000E+00   0.00000000000000E+00   4.29060593045097E-14
      2.06386431013486E-17   4.29266979476111E-14   1.52704468463703E-13   0.00000000000000E+00   0.00000000000000E+00
      0.00000000000000E+00   0.00000000000000E+00  -1.97200934220830E-16  -5.67681298200878E-15  -5.87401391622961E-15
     -1.05984939904644E-13   0.00000000000000E+00   0.00000000000000E+00   0.00000000000000E+00   0.00000000000000E+00
     -2.15281918312796E-15  -3.48998648482537E-14  -3.70526840313817E-14  -4.67195285590583E-14
      8.00000000000000E-01
      6.40000000000000E-01   6.40000000000000E-01   0.00000000000000E+00   0.00000000000000E+00   4.61753094169500E-14
      2.01380380026803E-17   4.61954474549527E-14   1.56816350738265E-13   0.00000000000000E+00   0.00000000000000E+00
      0.00000000000000E+00   0.00000000000000E+00  -1.97204182786113E-16  -5.91853680930047E-15  -6.11574099208658E-15
     -1.09962335015197E-13   0.00000000000000E+00   0.00000000000000E+00   0.00000000000000E+00   0.00000000000000E+00
     -2.15916656359102E-15  -3.79205398992751E-14  -4.00797064628661E-14  -4.68540157230683E-14
      9.00000000000000E-01
      7.20000000000000E-01   7.20000000000000E-01   0.00000000000000E+00   0.00000000000000E+00   4.91669289797520E-14
      1.89783058090779E-17   4.91859072855611E-14   1.60460474716208E-13   0.00000000000000E+00   0.00000000000000E+00
      0.00000000000000E+00   0.00000000000000E+00  -1.97206804942231E-16  -6.24429084989495E-15  -6.44149765483718E-15
     -1.13472409472995E-13   0.00000000000000E+00   0.00000000000000E+00   0.00000000000000E+00   0.00000000000000E+00
     -2.16548632878717E-15  -4.05789233019369E-14  -4.27444096307241E-14  -4.69880652432132E-14
      1.00000000000000E+00
      8.00000000000000E-01   8.00000000000000E-01   0.00000000000000E+00   0.00000000000000E+00   5.26322255875628E-14
      1.98993319584428E-17   5.26521249195212E-14   1.63634277739740E-13   0.00000000000000E+00   0.00000000000000E+00
      0.00000000000000E+00   0.00000000000000E+00  -1.97208856655378E-16  -7.00703505848269E-15  -7.20424391513807E-15
     -1.16512595091173E-13   0.00000000000000E+00   0.00000000000000E+00   0.00000000000000E+00   0.00000000000000E+00
     -2.17177898865098E-15  -4.32761020157322E-14  -4.54478810043832E-14  -4.71216826485660E-14
      0.00000000000000E+00
      8.00000000000000E-01   8.00000000000000E-01   0.00000000000000E+00   0.00000000000000E+00   5.26322255875124E-14
      2.07342409571367E-17   5.26529598284695E-14   1.63634277739740E-13   0.00000000000000E+00   0.00000000000000E+00
      0.00000000000000E+00   0.00000000000000E+00  -1.97208856655935E-16  -7.00703413885859E-15  -7.20424299551452E-15
     -1.16512595091174E-13   0.00000000000000E+00   0.00000000000000E+00   0.00000000000000E+00   0.00000000000000E+00
     -2.17177898865100E-15  -4.32769378443039E-14  -4.54487168329549E-14  -4.71216826485664E-14
      1.00000000000000E-01
      8.00000000000000E-01   8.00000000000000E-01   0.00000000000000E+00   0.00000000000000E+00   1.01639168833576E-13
      2.05144402215819E-17   1.01659683273798E-13   1.65793123035796E-13   0.00000000000000E+00   0.00000000000000E+00
      0.00000000000000E+00   0.00000000000000E+00  -1.97208070072244E-16  -7.56224919441190E-15  -7.75945726448414E-15
     -1.15800049622980E-13  -1.70000000000000E+00  -1.70000000000000E+00   0.00000000000000E+00   0.00000000000000E+00
     -2.30552708349855E-15  -9.15946989258149E-14  -9.39002260093134E-14  -4.99930734128179E-14
      2.00000000000000E-01
      8.00000000000000E-01   8.00000000000000E-01   0.00000000000000E+00   0.00000000000000E+00   1.29875001670318E-13
      2.07108168199132E-17   1.29895712487138E-13   1.63304202948547E-13   0.00000000000000E+00   0.00000000000000E+00
      0.00000000000000E+00   0.00000000000000E+00  -1.97201619636832E-16  -9.64372385524704E-15  -9.84092547488387E-15
     -1.09771356717418E-13  -3.40000000000000E+00  -3.40000000000000E+00   0.00000000000000E+00   0.00000000000000E+00
     -2.46677940741479E-15  -1.17588007604839E-13  -1.20054787012254E-13  -5.35328462311285E-14
      3.00000000000000E-01
      8.00000000000000E-01   8.00000000000000E-01   0.00000000000000E+00   0.00000000000000E+00   1.31848655209916E-13
      2.07280793587623E-17   1.31869383289274E-13   1.61908139699550E-13   0.00000000000000E+00   0.00000000000000E+00
      0.00000000000000E+00   0.00000000000000E+00  -1.97193688274154E-16  -8.22098725996730E-15  -8.41818094824145E-15
     -1.02531113100072E-13  -5.10000000000000E+00  -5.10000000000000E+00   0.00000000000000E+00   0.00000000000000E+00
     -2.72466621324791E-15  -1.20726536127785E-13  -1.23451202341033E-13  -5.93770265994783E-14
      4.00000000000000E-01
      8.00000000000000E-01   8.00000000000000E-01   0.00000000000000E+00   0.00000000000000E+00   1.33087961118105E-13
      2.07310754486264E-17   1.33108692193553E-13   1.62752532543644E-13   0.00000000000000E+00   0.00000000000000E+00
      0.00000000000000E+00   0.00000000000000E+00  -1.97185358031701E-16  -7.37469905554599E-15  -7.57188441357769E-15
     -9.50393017709856E-14  -6.80000000000000E+00  -6.80000000000000E+00   0.00000000000000E+00   0.00000000000000E+00
     -3.07548478368362E-15  -1.22461322996293E-13  -1.25536807779976E-13  -6.77132307726592E-14
      5.00000000000000E-01
      8.00000000000000E-01   8.00000000000000E-01   0.00000000000000E+00   0.00000000000000E+00   1.35384616687936E-13
      2.07326439317040E-17   1.35405349331867E-13   1.64239579082091E-13   0.00000000000000E+00   0.00000000000000E+00
      0.00000000000000E+00   0.00000000000000E+00  -1.97177163782236E-16   8.17988232635575E-15   7.98270516257352E-15
     -8.73115486103073E-14  -8.50000000000000E+00  -8.50000000000000E+00   0.00000000000000E+00   0.00000000000000E+00
     -3.44159120765202E-15  -1.39946463286789E-13  -1.43388054494441E-13  -7.69280304717842E-14
      6.00000000000000E-01
      8.00000000000000E-01   8.00000000000000E-01   0.00000000000000E+00   0.00000000000000E+00   1.37579262448189E-13
      2.07336219267293E-17   1.37599996070115E-13   1.65643344916105E-13   0.00000000000000E+00   0.00000000000000E+00
      0.00000000000000E+00   0.00000000000000E+00  -1.97169362768465E-16   1.17785119471165E-12   1.17765402534888E-12
     -7.93768705170572E-14  -1.02000000000000E+01  -1.02000000000000E+01   0.00000000000000E+00   0.00000000000000E+00
     -3.79124011969862E-15  -1.31146278129930E-12  -1.31525402141900E-12  -8.62664743990495E-14
      7.00000000000000E-01
      8.00000000000000E-01   8.00000000000000E-01   0.00000000000000E+00   0.00000000000000E+00   1.37961534174229E-13
      2.07353620206273E-17   1.37982269536250E-13   1.66940823688625E-13   0.00000000000000E+00   0.00000000000000E+00
      0.00000000000000E+00   0.00000000000000E+00  -1.97162368181665E-16   5.15679925806849E-11   5.15677954183167E-11
     -7.13203815097944E-14  -1.19000000000000E+01  -1.19000000000000E+01   0.00000000000000E+00   0.00000000000000E+00
     -4.12169126959575E-15  -5.17016559965833E-11  -5.17057776878529E-11  -9.56204421788310E-14
      8.00000000000000E-01
      8.00000000000000E-01   8.00000000000000E-01   0.00000000000000E+00   0.00000000000000E+00   1.36933760091483E-13
      2.07373542703099E-17   1.36954497445754E-13   1.68165845377778E-13   0.00000000000000E+00   0.00000000000000E+00
      0.00000000000000E+00   0.00000000000000E+00  -1.97153044057105E-16   1.19900596365053E-09   1.19900576649749E-09
     -6.31862812762657E-14  -1.36000000000000E+01  -1.36000000000000E+01   0.00000000000000E+00   0.00000000000000E+00
     -4.43414687982720E-15  -1.19913828684805E-09  -1.19914272099493E-09  -1.04979564101512E-13
      9.00000000000000E-01
      8.00000000000000E-01   8.00000000000000E-01   0.00000000000000E+00   0.00000000000000E+00   1.26144026943222E-13
      2.07390916153783E-17   1.26164766034837E-13   1.69407219745703E-13   0.00000000000000E+00   0.00000000000000E+00
      0.00000000000000E+00   0.00000000000000E+00  -1.97088451022016E-16   1.71846807475727E-08   1.71846805504843E-08
     -5.50475194369126E-14  -1.53000000000000E+01  -1.53000000000000E+01   0.00000000000000E+00   0.00000000000000E+00
     -4.73054655916760E-15  -1.71848019847041E-08  -1.71848067152506E-08  -1.14359700308791E-13
      1.00000000000000E+00
      8.00000000000000E-01   8.00000000000000E-01   0.00000000000000E+00   0.00000000000000E+00   8.60486322410074E-14
      2.07418916336732E-17   8.60693741326411E-14   1.71121639905426E-13   0.00000000000000E+00   0.00000000000000E+00
      0.00000000000000E+00   0.00000000000000E+00  -1.96738758269888E-16   1.63162666261697E-07   1.63162666064958E-07
     -4.72080767804042E-14  -1.70000000000000E+01  -1.70000000000000E+01   0.00000000000000E+00   0.00000000000000E+00
     -5.01657660721385E-15  -1.63162747117754E-07  -1.63162752134331E-07  -1.23913563125022E-13
}
