DF-ISE text

Info {
  version   = 1.0
  type      = xyplot
  datasets  = [
    "time"
    "Ntop OuterVoltage" "Ntop InnerVoltage" "Ntop QuasiFermiPotential" "Ntop DisplacementCurrent" "Ntop eCurrent"
    "Ntop hCurrent" "Ntop TotalCurrent" "Ntop Charge" "Ptop OuterVoltage" "Ptop InnerVoltage"
    "Ptop QuasiFermiPotential" "Ptop DisplacementCurrent" "Ptop eCurrent" "Ptop hCurrent" "Ptop TotalCurrent"
    "Ptop Charge" "Pbot OuterVoltage" "Pbot InnerVoltage" "Pbot QuasiFermiPotential" "Pbot DisplacementCurrent"
    "Pbot eCurrent" "Pbot hCurrent" "Pbot TotalCurrent" "Pbot Charge" ]
  functions = [
    Time
    OuterVoltage InnerVoltage QuasiFermiPotential DisplacementCurrent eCurrent
    hCurrent TotalCurrent Charge OuterVoltage InnerVoltage
    QuasiFermiPotential DisplacementCurrent eCurrent hCurrent TotalCurrent
    Charge OuterVoltage InnerVoltage QuasiFermiPotential DisplacementCurrent
    eCurrent hCurrent TotalCurrent Charge ]
}

Data {
      0.00000000000000E+00
      0.00000000000000E+00   0.00000000000000E+00   0.00000000000000E+00   0.00000000000000E+00  -2.04770699548790E-27
      8.43037908509925E-19   8.43037906462218E-19   1.16136913278520E-13   0.00000000000000E+00   0.00000000000000E+00
      0.00000000000000E+00   0.00000000000000E+00   2.05987523780440E-27  -8.40415966873393E-21  -8.40415760885870E-21
     -7.03717064495679E-14   0.00000000000000E+00   0.00000000000000E+00   0.00000000000000E+00   0.00000000000000E+00
     -7.45342929180871E-30  -8.34633748845946E-19  -8.34633748853400E-19  -4.57652068289517E-14
      0.00000000000000E+00
      0.00000000000000E+00   0.00000000000000E+00   0.00000000000000E+00   0.00000000000000E+00   2.53089896929128E-23
     -6.40597865347873E-20  -6.40344775450944E-20   1.16136908610689E-13   0.00000000000000E+00   0.00000000000000E+00
      0.00000000000000E+00   0.00000000000000E+00  -2.52950711032491E-23   1.11476139145389E-19   1.11450844074285E-19
     -7.03717017819575E-14   0.00000000000000E+00   0.00000000000000E+00   0.00000000000000E+00   0.00000000000000E+00
     -1.68506038499350E-29  -4.74163665123397E-20  -4.74163665291903E-20  -4.57652068287303E-14
      1.00000000000000E-01
      8.00000000000000E-02   8.00000000000000E-02   0.00000000000000E+00   0.00000000000000E+00   1.71422955603262E-14
      1.98457567685547E-17   1.71621413170947E-14   1.23209890212747E-13   0.00000000000000E+00   0.00000000000000E+00
      0.00000000000000E+00   0.00000000000000E+00  -1.89275221481052E-16  -2.45492683677293E-15  -2.64420205825398E-15
     -7.73065860657280E-14   0.00000000000000E+00   0.00000000000000E+00   0.00000000000000E+00   0.00000000000000E+00
     -2.01837775112961E-15  -1.24995615077112E-14  -1.45179392588408E-14  -4.59033041470196E-14
      2.00000000000000E-01
      1.60000000000000E-01   1.60000000000000E-01   0.00000000000000E+00   0.00000000000000E+00   2.36747020821687E-14
      2.06928585025737E-17   2.36953949406713E-14   1.29373655326485E-13   0.00000000000000E+00   0.00000000000000E+00
      0.00000000000000E+00   0.00000000000000E+00  -1.96970982432925E-16  -3.00509956638132E-15  -3.20207054881424E-15
     -8.33331520977338E-14   0.00000000000000E+00   0.00000000000000E+00   0.00000000000000E+00   0.00000000000000E+00
     -2.11631610010390E-15  -1.83770082917532E-14  -2.04933243918571E-14  -4.60405032287516E-14
      3.00000000000000E-01
      2.40000000000000E-01   2.40000000000000E-01   0.00000000000000E+00   0.00000000000000E+00   2.83105474785214E-14
      2.08170097655996E-17   2.83313644882870E-14   1.35045381028165E-13   0.00000000000000E+00   0.00000000000000E+00
      0.00000000000000E+00   0.00000000000000E+00  -1.97198938108427E-16  -3.45174222737575E-15  -3.64894116548418E-15
     -8.88682308255184E-14   0.00000000000000E+00   0.00000000000000E+00   0.00000000000000E+00   0.00000000000000E+00
     -2.12695747188776E-15  -2.25554658509151E-14  -2.46824233228029E-14  -4.61771502026477E-14
      4.00000000000000E-01
      3.20000000000000E-01   3.20000000000000E-01   0.00000000000000E+00   0.00000000000000E+00   3.29008323348083E-14
      2.06277280729097E-17   3.29214600628812E-14   1.40454056588206E-13   0.00000000000000E+00   0.00000000000000E+00
      0.00000000000000E+00   0.00000000000000E+00  -1.97207848197164E-16  -4.26029969981599E-15  -4.45750754801315E-15
     -9.41406735004513E-14   0.00000000000000E+00   0.00000000000000E+00   0.00000000000000E+00   0.00000000000000E+00
     -2.13360016418388E-15  -2.63303523506842E-14  -2.84639525148681E-14  -4.63133830877544E-14
      5.00000000000000E-01
      4.00000000000000E-01   4.00000000000000E-01   0.00000000000000E+00   0.00000000000000E+00   3.74948142493733E-14
      2.07508407554808E-17   3.75155650901288E-14   1.45682493183741E-13   0.00000000000000E+00   0.00000000000000E+00
      0.00000000000000E+00   0.00000000000000E+00  -1.97211301158045E-16  -5.33094834469001E-15  -5.52815964584806E-15
     -9.92332994373056E-14   0.00000000000000E+00   0.00000000000000E+00   0.00000000000000E+00   0.00000000000000E+00
     -2.14003803872326E-15  -2.98473674055573E-14  -3.19874054442805E-14  -4.64491937464345E-14
      6.00000000000000E-01
      4.80000000000000E-01   4.80000000000000E-01   0.00000000000000E+00   0.00000000000000E+00   4.12253509702863E-14
      2.06317649924001E-17   4.12459827352787E-14   1.50759312264036E-13   0.00000000000000E+00   0.00000000000000E+00
      0.00000000000000E+00   0.00000000000000E+00  -1.97215477818220E-16  -6.05456500846984E-15  -6.25178048628806E-15
     -1.04174742976456E-13   0.00000000000000E+00   0.00000000000000E+00   0.00000000000000E+00   0.00000000000000E+00
     -2.14644226105798E-15  -3.28477599879326E-14  -3.49942022489906E-14  -4.65845692875814E-14
      7.00000000000000E-01
      5.60000000000000E-01   5.60000000000000E-01   0.00000000000000E+00   0.00000000000000E+00   4.46675293116900E-14
      2.06390983210727E-17   4.46881684100111E-14   1.55688815647297E-13   0.00000000000000E+00   0.00000000000000E+00
      0.00000000000000E+00   0.00000000000000E+00  -1.97219559659966E-16  -6.39755039180284E-15  -6.59476995146281E-15
     -1.08969306921956E-13   0.00000000000000E+00   0.00000000000000E+00   0.00000000000000E+00   0.00000000000000E+00
     -2.15281824651572E-15  -3.59405802120326E-14  -3.80933984585483E-14  -4.67195087253397E-14
      8.00000000000000E-01
      6.40000000000000E-01   6.40000000000000E-01   0.00000000000000E+00   0.00000000000000E+00   4.78808497284967E-14
      2.07145717168079E-17   4.79015643002135E-14   1.60455836205804E-13   0.00000000000000E+00   0.00000000000000E+00
      0.00000000000000E+00   0.00000000000000E+00  -1.97223309063666E-16  -6.59131830155500E-15  -6.78854161061866E-15
     -1.13601826161980E-13   0.00000000000000E+00   0.00000000000000E+00   0.00000000000000E+00   0.00000000000000E+00
     -2.15916629570528E-15  -3.89538563938897E-14  -4.11130226895950E-14  -4.68540100438234E-14
      9.00000000000000E-01
      7.20000000000000E-01   7.20000000000000E-01   0.00000000000000E+00   0.00000000000000E+00   5.07015285499932E-14
      2.07647919196048E-17   5.07222933419128E-14   1.65026317312469E-13   0.00000000000000E+00   0.00000000000000E+00
      0.00000000000000E+00   0.00000000000000E+00  -1.97226698957048E-16  -6.75645729313252E-15  -6.95368399208957E-15
     -1.18038204324343E-13   0.00000000000000E+00   0.00000000000000E+00   0.00000000000000E+00   0.00000000000000E+00
     -2.16548857852306E-15  -4.16031207713000E-14  -4.37686093498230E-14  -4.69881129881251E-14
      1.00000000000000E+00
      8.00000000000000E-01   8.00000000000000E-01   0.00000000000000E+00   0.00000000000000E+00   5.35653558449071E-14
      2.08014758966744E-17   5.35861573208038E-14   1.69350214667376E-13   0.00000000000000E+00   0.00000000000000E+00
      0.00000000000000E+00   0.00000000000000E+00  -1.97229713348139E-16  -6.93784610762670E-15  -7.13507582097484E-15
     -1.22228329590386E-13   0.00000000000000E+00   0.00000000000000E+00   0.00000000000000E+00   0.00000000000000E+00
     -2.17178851695307E-15  -4.42792929828758E-14  -4.64510814998289E-14  -4.71218850769901E-14
      0.00000000000000E+00
      8.00000000000000E-01   8.00000000000000E-01   0.00000000000000E+00   0.00000000000000E+00   5.35653558449065E-14
      2.07631213788454E-17   5.35861189662853E-14   1.69350214667376E-13   0.00000000000000E+00   0.00000000000000E+00
      0.00000000000000E+00   0.00000000000000E+00  -1.97229713348328E-16  -6.93784607884258E-15  -7.13507579219091E-15
     -1.22228329590386E-13   0.00000000000000E+00   0.00000000000000E+00   0.00000000000000E+00   0.00000000000000E+00
     -2.17178851695307E-15  -4.42792546571413E-14  -4.64510431740944E-14  -4.71218850769901E-14
      1.00000000000000E-01
      8.00000000000000E-01   8.00000000000000E-01   0.00000000000000E+00   0.00000000000000E+00   1.46250501877161E-13
      2.06589914774292E-17   1.46271160868638E-13   1.79005360965387E-13   0.00000000000000E+00   0.00000000000000E+00
      0.00000000000000E+00   0.00000000000000E+00  -1.97229713347692E-16  -6.45634862465259E-15  -6.65357833800028E-15
     -1.22228328923925E-13  -4.50000000000000E+00  -4.50000000000000E+00   0.00000000000000E+00   0.00000000000000E+00
     -2.61119227150630E-15  -1.37006390259131E-13  -1.39617582530638E-13  -5.67770320414619E-14
      2.00000000000000E-01
      8.00000000000000E-01   8.00000000000000E-01   0.00000000000000E+00   0.00000000000000E+00   2.00891697304286E-13
      2.06195109875835E-17   2.00912316815273E-13   1.94926595662177E-13   0.00000000000000E+00   0.00000000000000E+00
      0.00000000000000E+00   0.00000000000000E+00  -1.97229713142565E-16  -6.18786497505961E-15  -6.38509468820217E-15
     -1.22228113363526E-13  -9.00000000000000E+00  -9.00000000000000E+00   0.00000000000000E+00   0.00000000000000E+00
     -3.27626201034595E-15  -1.91250960116725E-13  -1.94527222127071E-13  -7.26984822986519E-14
      3.00000000000000E-01
      8.00000000000000E-01   8.00000000000000E-01   0.00000000000000E+00   0.00000000000000E+00   2.46231635008127E-13
      2.07664881375879E-17   2.46252401496265E-13   2.09287326316590E-13   0.00000000000000E+00   0.00000000000000E+00
      0.00000000000000E+00   0.00000000000000E+00  -1.97229673207071E-16  -6.03214399025248E-15  -6.22937366345955E-15
     -1.22186256407342E-13  -1.35000000000000E+01  -1.35000000000000E+01   0.00000000000000E+00   0.00000000000000E+00
     -3.82150362071074E-15  -2.36201524212094E-13  -2.40023027832805E-13  -8.71010699092484E-14
      4.00000000000000E-01
      8.00000000000000E-01   8.00000000000000E-01   0.00000000000000E+00   0.00000000000000E+00   2.72058116435215E-13
      2.07665051485698E-17   2.72078882940364E-13   2.20568923119284E-13   0.00000000000000E+00   0.00000000000000E+00
      0.00000000000000E+00   0.00000000000000E+00  -1.97228238518806E-16  -6.05113542555416E-15  -6.24836366407296E-15
     -1.20727932979332E-13  -1.80000000000000E+01  -1.80000000000000E+01   0.00000000000000E+00   0.00000000000000E+00
     -4.26475404213727E-15  -2.61565765234152E-13  -2.65830519276289E-13  -9.98409901399531E-14
      5.00000000000000E-01
      8.00000000000000E-01   8.00000000000000E-01   0.00000000000000E+00   0.00000000000000E+00   2.84341496005605E-13
      2.07671900827828E-17   2.84362263195688E-13   2.25151699333334E-13   0.00000000000000E+00   0.00000000000000E+00
      0.00000000000000E+00   0.00000000000000E+00  -1.97220686108188E-16  -8.23393085023850E-15  -8.43115153634669E-15
     -1.13167777107230E-13  -2.25000000000000E+01  -2.25000000000000E+01   0.00000000000000E+00   0.00000000000000E+00
     -4.65698637723772E-15  -2.71274125282104E-13  -2.75931111659342E-13  -1.11983922226104E-13
      6.00000000000000E-01
      8.00000000000000E-01   8.00000000000000E-01   0.00000000000000E+00   0.00000000000000E+00   2.86310008553786E-13
      2.07667338214843E-17   2.86330775287607E-13   2.27729787501394E-13   0.00000000000000E+00   0.00000000000000E+00
      0.00000000000000E+00   0.00000000000000E+00  -1.97210782543147E-16  -7.93375010184077E-15  -8.13096088438392E-15
     -1.03711322402708E-13  -2.70000000000000E+01  -2.70000000000000E+01   0.00000000000000E+00   0.00000000000000E+00
     -5.01964569618884E-15  -2.73180168707035E-13  -2.78199814403224E-13  -1.24018465098686E-13
      7.00000000000000E-01
      8.00000000000000E-01   8.00000000000000E-01   0.00000000000000E+00   0.00000000000000E+00   2.87042249890234E-13
      2.07705056261766E-17   2.87063020395860E-13   2.29767296182897E-13   0.00000000000000E+00   0.00000000000000E+00
      0.00000000000000E+00   0.00000000000000E+00  -1.97200104327178E-16  -6.66644416257296E-15  -6.86364426690013E-15
     -9.37367334430682E-14  -3.15000000000000E+01  -3.15000000000000E+01   0.00000000000000E+00   0.00000000000000E+00
     -5.35835415641935E-15  -2.74841021972541E-13  -2.80199376128961E-13  -1.36030562739830E-13
      8.00000000000000E-01
      8.00000000000000E-01   8.00000000000000E-01   0.00000000000000E+00   0.00000000000000E+00   2.87461365788718E-13
      2.07736125087858E-17   2.87482139401227E-13   2.31443544490420E-13   0.00000000000000E+00   0.00000000000000E+00
      0.00000000000000E+00   0.00000000000000E+00  -1.97189674943014E-16   2.09840825242761E-13   2.09643635567818E-13
     -8.34105825307316E-14  -3.60000000000000E+01  -3.60000000000000E+01   0.00000000000000E+00   0.00000000000000E+00
     -5.67584361682534E-15  -4.91449931352220E-13  -4.97125774969045E-13  -1.48032961959687E-13
      9.00000000000000E-01
      8.00000000000000E-01   8.00000000000000E-01   0.00000000000000E+00   0.00000000000000E+00   2.87281257362485E-13
      2.07776461859281E-17   2.87302035008671E-13   2.32899063923749E-13   0.00000000000000E+00   0.00000000000000E+00
      0.00000000000000E+00   0.00000000000000E+00  -1.97180424509135E-16   3.24808807216296E-11   3.24806835412051E-11
     -7.28635247176418E-14  -4.05000000000000E+01  -4.05000000000000E+01   0.00000000000000E+00   0.00000000000000E+00
     -5.97440471722604E-15  -3.27620111714967E-11  -3.27679855762140E-11  -1.60035539206107E-13
      1.00000000000000E+00
      8.00000000000000E-01   8.00000000000000E-01   0.00000000000000E+00   0.00000000000000E+00   2.84638678118024E-13
      2.07829790128895E-17   2.84659461097037E-13   2.34224766837300E-13   0.00000000000000E+00   0.00000000000000E+00
      0.00000000000000E+00   0.00000000000000E+00  -1.97157898407233E-16   1.75407867836084E-09   1.75407848120294E-09
     -6.21801123150126E-14  -4.50000000000000E+01  -4.50000000000000E+01   0.00000000000000E+00   0.00000000000000E+00
     -6.25594947371166E-15  -1.75435688471455E-09  -1.75436314066403E-09  -1.72044654522286E-13
}
