DF-ISE text

Info {
  version   = 1.0
  type      = xyplot
  datasets  = [
    "time"
    "Ntop OuterVoltage" "Ntop InnerVoltage" "Ntop QuasiFermiPotential" "Ntop DisplacementCurrent" "Ntop eCurrent"
    "Ntop hCurrent" "Ntop TotalCurrent" "Ntop Charge" "Ptop OuterVoltage" "Ptop InnerVoltage"
    "Ptop QuasiFermiPotential" "Ptop DisplacementCurrent" "Ptop eCurrent" "Ptop hCurrent" "Ptop TotalCurrent"
    "Ptop Charge" "Pbot OuterVoltage" "Pbot InnerVoltage" "Pbot QuasiFermiPotential" "Pbot DisplacementCurrent"
    "Pbot eCurrent" "Pbot hCurrent" "Pbot TotalCurrent" "Pbot Charge" ]
  functions = [
    Time
    OuterVoltage InnerVoltage QuasiFermiPotential DisplacementCurrent eCurrent
    hCurrent TotalCurrent Charge OuterVoltage InnerVoltage
    QuasiFermiPotential DisplacementCurrent eCurrent hCurrent TotalCurrent
    Charge OuterVoltage InnerVoltage QuasiFermiPotential DisplacementCurrent
    eCurrent hCurrent TotalCurrent Charge ]
}

Data {
      5.00000000000000E-13
      8.00000000000000E-01   8.00000000000000E-01   0.00000000000000E+00   9.59560746484148E-15   7.92219701860575E-12
     -7.31577415293612E-12   6.16018473134468E-13   2.34224766837357E-13   0.00000000000000E+00   0.00000000000000E+00
      0.00000000000000E+00  -1.19716166517222E-13  -1.97157898428201E-16   1.75445406425397E-09   1.75433415092955E-09
     -6.21801123149315E-14  -4.50000000000000E+01  -4.50000000000000E+01   0.00000000000000E+00  -4.35978360594413E-13
      1.45896073602264E-11  -1.76910379840232E-09  -1.75495016940269E-09  -1.72044654522425E-13
      1.25000000000000E-12
      8.00000000000000E-01   8.00000000000000E-01   0.00000000000000E+00   1.11535280967706E-13   3.57816140289978E-11
     -3.37572288614130E-11   2.13592044855256E-12   2.34224766837762E-13   0.00000000000000E+00   0.00000000000000E+00
      0.00000000000000E+00  -2.84384577974693E-14  -1.97157898425678E-16   1.75562731361982E-09   1.75559867800412E-09
     -6.21801123142904E-14  -4.50000000000000E+01  -4.50000000000000E+01   0.00000000000000E+00  -2.49212894964368E-12
      6.73287074290326E-11  -1.82257117693206E-09  -1.75773459845267E-09  -1.72044654523471E-13
      2.37500000000000E-12
      8.00000000000000E-01   8.00000000000000E-01   0.00000000000000E+00   8.48972849009860E-13   2.98457360120169E-10
     -2.79310684765185E-10   1.99956482039936E-11   2.34224766843662E-13   0.00000000000000E+00   0.00000000000000E+00
      0.00000000000000E+00   1.12569448142891E-12  -1.97157898396981E-16   1.76975747849372E-09   1.77088297581725E-09
     -6.21801123046764E-14  -4.50000000000000E+01  -4.50000000000000E+01   0.00000000000000E+00  -2.70173521687120E-11
      5.56950817405940E-10  -2.32081208925847E-09  -1.79087862402124E-09  -1.72044654538985E-13
      4.06250000000000E-12
      8.00000000000000E-01   8.00000000000000E-01   0.00000000000000E+00   1.27433382722404E-11   4.63627207480278E-09
     -4.23720783083160E-09   4.11807582243428E-10   2.34224767016971E-13   0.00000000000000E+00   0.00000000000000E+00
      0.00000000000000E+00   1.63070456541322E-11  -1.97157897737962E-16   2.09651329856393E-09   2.11282014706017E-09
     -6.21801120137024E-14  -4.50000000000000E+01  -4.50000000000000E+01   0.00000000000000E+00  -5.70022261034933E-10
      8.44466276421179E-09  -1.03992682324805E-08  -2.52462772930360E-09  -1.72044655003269E-13
      6.59375000000000E-12
      8.00000000000000E-01   8.00000000000000E-01   0.00000000000000E+00   2.53821948566734E-10   9.65432037578407E-08
     -8.47967088634326E-08   1.20003168429748E-08   2.34224774402465E-13   0.00000000000000E+00   0.00000000000000E+00
      0.00000000000000E+00   3.28976505796202E-10  -1.97157877617610E-16   1.20648044135383E-08   1.23937807221766E-08
     -6.21800992783436E-14  -4.50000000000000E+01  -4.50000000000000E+01   0.00000000000000E+00  -1.67537792517875E-08
      1.68848889420958E-07  -1.76489207734322E-07  -2.43940975651514E-08  -1.72044675124121E-13
      1.03906250000000E-11
      8.00000000000000E-01   8.00000000000000E-01   0.00000000000000E+00   2.12113809869857E-09   8.65602133043035E-07
     -7.05782755346389E-07   1.61940515795344E-07   2.34224930991977E-13   0.00000000000000E+00   0.00000000000000E+00
      0.00000000000000E+00   2.72434806356699E-09  -1.97157612365471E-16   1.43266741395547E-07   1.45991089261956E-07
     -6.21798254207622E-14  -4.50000000000000E+01  -4.50000000000000E+01   0.00000000000000E+00  -2.26393453625813E-07
      1.40296282482999E-06  -1.48450097626148E-06  -3.07931605057302E-07  -1.72045105571214E-13
      1.60859375000000E-11
      8.00000000000000E-01   8.00000000000000E-01   0.00000000000000E+00   1.23855224828071E-09   7.74228691275152E-07
     -3.77679638277936E-07   3.97787605245496E-07   2.34225753144707E-13   0.00000000000000E+00   0.00000000000000E+00
      0.00000000000000E+00   1.27837542673174E-09  -1.97157210425391E-16   3.40869526743283E-07   3.42147901972857E-07
     -6.21784176190781E-14  -4.50000000000000E+01  -4.50000000000000E+01   0.00000000000000E+00  -5.43170362218449E-07
      7.39264966995668E-07  -9.36030111995572E-07  -7.39935507218354E-07  -1.72047335525629E-13
      2.46289062500000E-11
      8.00000000000000E-01   8.00000000000000E-01   0.00000000000000E+00   1.65222124401277E-10   5.29791727799505E-07
     -9.43396442763346E-09   5.20522985496273E-07   2.34227806022226E-13   0.00000000000000E+00   0.00000000000000E+00
      0.00000000000000E+00  -2.03002842239226E-10  -1.97157093464269E-16   3.96209236761299E-07   3.96006233721902E-07
     -6.21752181592409E-14  -4.50000000000000E+01  -4.50000000000000E+01   0.00000000000000E+00  -6.64027522636285E-07
      1.36984473153098E-09  -2.53871541313421E-07  -9.16529219218175E-07  -1.72052587862985E-13
      3.74433593750000E-11
      8.00000000000000E-01   8.00000000000000E-01   0.00000000000000E+00   1.20071468099032E-10   5.70966676987233E-07
     -7.95357449166733E-09   5.63133173963664E-07   2.34231444211631E-13   0.00000000000000E+00   0.00000000000000E+00
      0.00000000000000E+00  -1.53095972268160E-10  -1.97157172217789E-16   3.53887496074136E-07   3.53734399904711E-07
     -6.21704472204567E-14  -4.50000000000000E+01  -4.50000000000000E+01   0.00000000000000E+00  -6.48335417402910E-07
     -6.25621907993877E-15  -2.68532150209244E-07  -9.16867573868374E-07  -1.72060996991173E-13
      5.66650390625000E-11
      8.00000000000000E-01   8.00000000000000E-01   0.00000000000000E+00   8.20011331374603E-11   6.14281237897066E-07
     -6.88778958483700E-09   6.07475449445367E-07   2.34237399444163E-13   0.00000000000000E+00   0.00000000000000E+00
      0.00000000000000E+00  -1.10219155822208E-10  -1.97157259824483E-16   3.06173180404064E-07   3.06062961051085E-07
     -6.21641634168894E-14  -4.50000000000000E+01  -4.50000000000000E+01   0.00000000000000E+00  -6.25332029786915E-07
     -6.25659666803048E-15  -2.88206374452938E-07  -9.13538410496450E-07  -1.72073236027273E-13
      8.54975585937500E-11
      8.00000000000000E-01   8.00000000000000E-01   0.00000000000000E+00   4.90219674515914E-11   6.54832747471314E-07
     -5.54911671022741E-09   6.49332652728538E-07   2.34246975414323E-13   0.00000000000000E+00   0.00000000000000E+00
      0.00000000000000E+00  -7.25085003601080E-11  -1.97157348494648E-16   2.56722983905551E-07   2.56650475208034E-07
     -6.21561490551494E-14  -4.50000000000000E+01  -4.50000000000000E+01   0.00000000000000E+00  -5.95282552094287E-07
     -6.25699503283180E-15  -3.10700569585290E-07  -9.05983127936572E-07  -1.72090826359172E-13
      1.28746337890625E-10
      8.00000000000000E-01   8.00000000000000E-01   0.00000000000000E+00   2.26146051030476E-11   6.85954513404025E-07
     -4.01077446397892E-09   6.81966353545149E-07   2.34261979697486E-13   0.00000000000000E+00   0.00000000000000E+00
      0.00000000000000E+00  -4.20744447726988E-11  -1.97157427327607E-16   2.10395105943311E-07   2.10353031301381E-07
     -6.21462117679328E-14  -4.50000000000000E+01  -4.50000000000000E+01   0.00000000000000E+00  -5.58887512421625E-07
     -6.25756089235770E-15  -3.33431866167347E-07  -8.92319384846533E-07  -1.72115767929553E-13
      1.61182922363281E-10
      8.00000000000000E-01   8.00000000000000E-01   0.00000000000000E+00   1.17805413250014E-11   6.96013993087969E-07
     -3.14737557946667E-09   6.92878398049827E-07   2.34273379621400E-13   0.00000000000000E+00   0.00000000000000E+00
      0.00000000000000E+00  -2.97676815666948E-11  -1.97157460773848E-16   1.88412422375653E-07   1.88382654496928E-07
     -6.21398454940813E-14  -4.50000000000000E+01  -4.50000000000000E+01   0.00000000000000E+00  -5.36860149224691E-07
     -6.25796448971394E-15  -3.44400897064102E-07  -8.81261052546758E-07  -1.72133534127319E-13
      2.09837799072266E-10
      8.00000000000000E-01   8.00000000000000E-01   0.00000000000000E+00   2.65137015906574E-12   7.00470034769203E-07
     -2.18882559899388E-09   6.98283860540368E-07   2.34290358868948E-13   0.00000000000000E+00   0.00000000000000E+00
      0.00000000000000E+00  -1.97533424726883E-11  -1.97157488428622E-16   1.65777342452038E-07   1.65757588912408E-07
     -6.21313833912370E-14  -4.50000000000000E+01  -4.50000000000000E+01   0.00000000000000E+00  -5.09385219152850E-07
     -6.25854286840347E-15  -3.54656224041384E-07  -8.64041449452777E-07  -1.72158975477710E-13
      2.46328956604004E-10
      8.00000000000000E-01   8.00000000000000E-01   0.00000000000000E+00  -8.31058112305826E-13   6.99152002684774E-07
     -1.67084896470862E-09   6.97480322661953E-07   2.34302904760659E-13   0.00000000000000E+00   0.00000000000000E+00
      0.00000000000000E+00  -1.61607924967026E-11  -1.97157498361259E-16   1.53352641800748E-07   1.53336480811093E-07
     -6.21256648172597E-14  -4.50000000000000E+01  -4.50000000000000E+01   0.00000000000000E+00  -4.91816922679503E-07
     -6.25895829586501E-15  -3.58999874534584E-07  -8.50816803473045E-07  -1.72177239943400E-13
      3.01065692901611E-10
      8.00000000000000E-01   8.00000000000000E-01   0.00000000000000E+00  -3.30960695985934E-12   6.94059305103234E-07
     -1.11654258581457E-09   6.92939452910460E-07   2.34321362667421E-13   0.00000000000000E+00   0.00000000000000E+00
      0.00000000000000E+00  -1.38512859439672E-11  -1.97157504864041E-16   1.37794053113234E-07   1.37780201630133E-07
     -6.21178485392684E-14  -4.50000000000000E+01  -4.50000000000000E+01   0.00000000000000E+00  -4.68441340712347E-07
     -6.25955606645053E-15  -3.62278307568688E-07  -8.30719654540591E-07  -1.72203514128153E-13
      3.42118245124817E-10
      8.00000000000000E-01   8.00000000000000E-01   0.00000000000000E+00  -3.91722502991552E-12   6.89288572314795E-07
     -8.29009797936737E-10   6.88455645291829E-07   2.34334933990731E-13   0.00000000000000E+00   0.00000000000000E+00
      0.00000000000000E+00  -1.34804189921991E-11  -1.97157506724560E-16   1.27101768517957E-07   1.27088287901807E-07
     -6.21125186099185E-14  -4.50000000000000E+01  -4.50000000000000E+01   0.00000000000000E+00  -4.52474593286600E-07
     -6.25998616333748E-15  -3.63069333647048E-07  -8.15543933193635E-07  -1.72222415380812E-13
      4.03697073459625E-10
      8.00000000000000E-01   8.00000000000000E-01   0.00000000000000E+00  -3.89764057545159E-12   6.82254047205984E-07
     -5.33110918386962E-10   6.81717038647022E-07   2.34354922823784E-13   0.00000000000000E+00   0.00000000000000E+00
      0.00000000000000E+00  -1.38819632357183E-11  -1.97157509485535E-16   1.11042890818808E-07   1.11029008658415E-07
     -6.21053400399962E-14  -4.50000000000000E+01  -4.50000000000000E+01   0.00000000000000E+00  -4.30003837884074E-07
     -6.26060439047228E-15  -3.62742203160757E-07  -7.92746047305435E-07  -1.72249582783786E-13
      4.49881194710732E-10
      8.00000000000000E-01   8.00000000000000E-01   0.00000000000000E+00  -3.50728185975575E-12   6.77564187287177E-07
     -3.86164133773670E-10   6.77174515871544E-07   2.34369681649169E-13   0.00000000000000E+00   0.00000000000000E+00
      0.00000000000000E+00  -1.45425003811765E-11  -1.97157513470310E-16   9.85102222007913E-08   9.84956795032526E-08
     -6.21006120079545E-14  -4.50000000000000E+01  -4.50000000000000E+01   0.00000000000000E+00  -4.13913511516268E-07
     -6.26104783873140E-15  -3.61756677597480E-07  -7.75670195374796E-07  -1.72269069641213E-13
      5.19157376587391E-10
      8.00000000000000E-01   8.00000000000000E-01   0.00000000000000E+00  -2.72337092248867E-12   6.71878705364573E-07
     -2.40937492312129E-10   6.71635044501338E-07   2.34391567002206E-13   0.00000000000000E+00   0.00000000000000E+00
      0.00000000000000E+00  -1.56762797673677E-11  -1.97157525028044E-16   7.85286213597262E-08   7.85129448828013E-08
     -6.20946362487329E-14  -4.50000000000000E+01  -4.50000000000000E+01   0.00000000000000E+00  -3.90492053498743E-07
     -6.26168182246878E-15  -3.59655929623715E-07  -7.50147989384140E-07  -1.72296930753475E-13
      5.71114512994885E-10
      8.00000000000000E-01   8.00000000000000E-01   0.00000000000000E+00  -2.10356043933231E-12   6.68714754972820E-07
     -1.71954088697841E-10   6.68540697323683E-07   2.34407855889920E-13   0.00000000000000E+00   0.00000000000000E+00
      0.00000000000000E+00  -1.65022925579870E-11  -1.97157539017468E-16   6.25718816347824E-08   6.25553791450669E-08
     -6.20910834337028E-14  -4.50000000000000E+01  -4.50000000000000E+01   0.00000000000000E+00  -3.73300338555636E-07
     -6.26213328962165E-15  -3.57795731650982E-07  -7.31096076468751E-07  -1.72316772456217E-13
      6.49050217606127E-10
      8.00000000000000E-01   8.00000000000000E-01   0.00000000000000E+00  -1.25160209369301E-12   6.65597578065657E-07
     -1.06379360933707E-10   6.65489947102629E-07   2.34432225330359E-13   0.00000000000000E+00   0.00000000000000E+00
      0.00000000000000E+00  -1.75957392847511E-11  -1.97157569536558E-16   3.72045581486441E-08   3.71869622122018E-08
     -6.20873510039102E-14  -4.50000000000000E+01  -4.50000000000000E+01   0.00000000000000E+00  -3.47886090872362E-07
     -6.26277264125231E-15  -3.54790812179697E-07  -7.02676909314832E-07  -1.72344874326448E-13
      7.07501996064559E-10
      8.00000000000000E-01   8.00000000000000E-01   0.00000000000000E+00  -7.06460025613388E-13   6.64381780425555E-07
     -7.64703167659303E-11   6.64304603648763E-07   2.34450528092249E-13   0.00000000000000E+00   0.00000000000000E+00
      0.00000000000000E+00  -1.82678466902911E-11  -1.97157600047313E-16   1.72029695113299E-08   1.71847014674821E-08
     -6.20858703698055E-14  -4.50000000000000E+01  -4.50000000000000E+01   0.00000000000000E+00  -3.29040118144139E-07
     -6.26322268896653E-15  -3.52449180708881E-07  -6.81489305116243E-07  -1.72364657722444E-13
      7.95179663752206E-10
      8.00000000000000E-01   8.00000000000000E-01   0.00000000000000E+00  -6.56405287590079E-14   6.63975705923673E-07
     -4.88904125185504E-11   6.63926749870626E-07   2.34478153393140E-13   0.00000000000000E+00   0.00000000000000E+00
      0.00000000000000E+00  -1.90300513494772E-11  -1.97157656922992E-16  -1.40012510365181E-08  -1.40202812850252E-08
     -6.20858754886151E-14  -4.50000000000000E+01  -4.50000000000000E+01   0.00000000000000E+00  -3.01021912413914E-07
     -6.26385094178340E-15  -3.48884549907834E-07  -6.49906468585599E-07  -1.72392277904524E-13
      9.26696165283676E-10
      8.00000000000000E-01   8.00000000000000E-01   0.00000000000000E+00   4.77437428822157E-13   6.65498000840171E-07
     -2.81684272909974E-11   6.65470309850309E-07   2.34520211664395E-13   0.00000000000000E+00   0.00000000000000E+00
      0.00000000000000E+00  -1.95977114457559E-11  -1.97157753683772E-16  -6.24935041251506E-08  -6.25131020337541E-08
     -6.20910811003195E-14  -4.50000000000000E+01  -4.50000000000000E+01   0.00000000000000E+00  -2.59446315360117E-07
     -6.26468906533770E-15  -3.43510886191750E-07  -6.02957207816556E-07  -1.72429130564076E-13
      1.02533354143228E-09
      8.00000000000000E-01   8.00000000000000E-01   0.00000000000000E+00   5.20505967855348E-13   6.67395783492188E-07
     -2.06742490741614E-11   6.67375629749081E-07   2.34552359155810E-13   0.00000000000000E+00   0.00000000000000E+00
      0.00000000000000E+00  -1.95269786646754E-11  -1.97157806750034E-16  -9.92909831918126E-08  -9.93105103676351E-08
     -6.20991611190577E-14  -4.50000000000000E+01  -4.50000000000000E+01   0.00000000000000E+00  -2.28574007165423E-07
     -6.26523634169747E-15  -3.39491105950786E-07  -5.68065119381446E-07  -1.72453198036752E-13
      1.17328960565518E-09
      8.00000000000000E-01   8.00000000000000E-01   0.00000000000000E+00  -2.05351293598694E-13   6.69072613449153E-07
     -1.45722912989408E-11   6.69057835806561E-07   2.34601543855422E-13   0.00000000000000E+00   0.00000000000000E+00
      0.00000000000000E+00  -1.83487943710696E-11  -1.97157685595531E-16  -1.52806759565725E-07  -1.52825108557253E-07
     -6.21179217308751E-14  -4.50000000000000E+01  -4.50000000000000E+01   0.00000000000000E+00  -1.82733435168346E-07
     -6.26592808198633E-15  -3.33499285815036E-07  -5.16232727249309E-07  -1.72483622124549E-13
      1.28425665382236E-09
      8.00000000000000E-01   8.00000000000000E-01   0.00000000000000E+00  -1.58385479669135E-12   6.67262319245159E-07
     -1.19995222034999E-11   6.67248735868159E-07   2.34638960861778E-13   0.00000000000000E+00   0.00000000000000E+00
      0.00000000000000E+00  -1.62986313123298E-11  -1.97157171413287E-16  -1.89445805589844E-07  -1.89462104418314E-07
     -6.21369486871292E-14  -4.50000000000000E+01  -4.50000000000000E+01   0.00000000000000E+00  -1.48749392841948E-07
     -6.26634617578500E-15  -3.29037232341551E-07  -4.77786631449845E-07  -1.72502012174651E-13
      1.36748193994775E-09
      8.00000000000000E-01   8.00000000000000E-01   0.00000000000000E+00  -3.24716525957311E-12   6.62603585090465E-07
     -1.06135198794131E-11   6.62589724405326E-07   2.34667050559307E-13   0.00000000000000E+00   0.00000000000000E+00
      0.00000000000000E+00  -1.39015785669443E-11  -1.97156270431314E-16  -2.13337571736743E-07  -2.13351473512466E-07
     -6.21537091033590E-14  -4.50000000000000E+01  -4.50000000000000E+01   0.00000000000000E+00  -1.23529092721161E-07
     -6.26660373994234E-15  -3.25709151905095E-07  -4.49238250892860E-07  -1.72513341455948E-13
      1.49231986913582E-09
      8.00000000000000E-01   8.00000000000000E-01   0.00000000000000E+00  -6.79933502547654E-12   6.47328598499869E-07
     -9.03190889581332E-12   6.47312767255948E-07   2.34708465893829E-13   0.00000000000000E+00   0.00000000000000E+00
      0.00000000000000E+00  -8.75390438846982E-12  -1.97153284537521E-16  -2.40257389029483E-07  -2.40266143131025E-07
     -6.21820318406502E-14  -4.50000000000000E+01  -4.50000000000000E+01   0.00000000000000E+00  -8.62993059119453E-08
     -6.26690140469582E-15  -3.20747311946074E-07  -4.07046624124921E-07  -1.72526434053180E-13
      1.58594831602688E-09
      8.00000000000000E-01   8.00000000000000E-01   0.00000000000000E+00  -1.02116552660964E-11   6.27402577488853E-07
     -8.10602687355297E-12   6.27384259806714E-07   2.34738248369413E-13   0.00000000000000E+00   0.00000000000000E+00
      0.00000000000000E+00  -3.75353538032944E-12  -1.97148937510765E-16  -2.51283860776461E-07  -2.51287614508990E-07
     -6.22050130012213E-14  -4.50000000000000E+01  -4.50000000000000E+01   0.00000000000000E+00  -5.90462838233320E-08
     -6.26705605988700E-15  -3.17050355207336E-07  -3.76096645297724E-07  -1.72533235368192E-13
      1.72639098636346E-09
      8.00000000000000E-01   8.00000000000000E-01   0.00000000000000E+00  -1.58827681625014E-11   5.81065279211553E-07
     -6.97921377777670E-12   5.81042417229612E-07   2.34778967815462E-13   0.00000000000000E+00   0.00000000000000E+00
      0.00000000000000E+00   4.81274595144284E-12  -1.97136543458291E-16  -2.49621712114125E-07  -2.49616899565310E-07
     -6.22402054522809E-14  -4.50000000000000E+01  -4.50000000000000E+01   0.00000000000000E+00  -1.98787264755165E-08
     -6.26718180966701E-15  -3.11546784921604E-07  -3.31425517664302E-07  -1.72538762363181E-13
      1.83172298911590E-09
      8.00000000000000E-01   8.00000000000000E-01   0.00000000000000E+00  -1.98928978220795E-11   5.33145639917849E-07
     -6.28397918741549E-12   5.33119463040840E-07   2.34804999874676E-13   0.00000000000000E+00   0.00000000000000E+00
      0.00000000000000E+00   1.12094479426678E-11  -1.97120479605294E-16  -2.33273027389638E-07  -2.33261818138816E-07
     -6.22655996828516E-14  -4.50000000000000E+01  -4.50000000000000E+01   0.00000000000000E+00   7.59671889731228E-09
     -6.26719642673501E-15  -3.07454357532139E-07  -2.99857644902023E-07  -1.72539400191825E-13
      1.98972099324456E-09
      8.00000000000000E-01   8.00000000000000E-01   0.00000000000000E+00  -2.40043051575129E-11   4.44421022918122E-07
     -5.41076953050791E-12   4.44391607843434E-07   2.34834107759288E-13   0.00000000000000E+00   0.00000000000000E+00
      0.00000000000000E+00   1.87126132567439E-11  -1.97080397417202E-16  -1.87534912309863E-07  -1.87516199893686E-07
     -6.22988631904418E-14  -4.50000000000000E+01  -4.50000000000000E+01   0.00000000000000E+00   4.45040014534046E-08
     -6.26710219248380E-15  -3.01379403136050E-07  -2.56875407949748E-07  -1.72535244568848E-13
      2.10821949634105E-09
      8.00000000000000E-01   8.00000000000000E-01   0.00000000000000E+00  -2.49132862670316E-11   3.70373269470623E-07
     -4.86097025202178E-12   3.70343495214104E-07   2.34846880718362E-13   0.00000000000000E+00   0.00000000000000E+00
      0.00000000000000E+00   2.16816373746356E-11  -1.97034617033305E-16  -1.41586570478280E-07  -1.41564889037940E-07
     -6.23183273063265E-14  -4.50000000000000E+01  -4.50000000000000E+01   0.00000000000000E+00   6.81004852533811E-08
     -6.26695029744171E-15  -2.96879085162596E-07  -2.28778606176165E-07  -1.72528553412036E-13
      2.28596725098579E-09
      8.00000000000000E-01   8.00000000000000E-01   0.00000000000000E+00  -2.26655434211763E-11   2.61953930081394E-07
     -4.16414800493801E-12   2.61927100389968E-07   2.34850772411950E-13   0.00000000000000E+00   0.00000000000000E+00
      0.00000000000000E+00   2.13610652780927E-11  -1.96936986190059E-16  -6.79473335302439E-08  -6.79259726619028E-08
     -6.23368902088428E-14  -4.50000000000000E+01  -4.50000000000000E+01   0.00000000000000E+00   9.62315863875780E-08
     -6.26661713515586E-15  -2.90232707849026E-07  -1.94001127728065E-07  -1.72513882203106E-13
      2.41927806696935E-09
      8.00000000000000E-01   8.00000000000000E-01   0.00000000000000E+00  -1.89219131857053E-11   1.91164801463251E-07
     -3.72288479684907E-12   1.91142156665269E-07   2.34842560169105E-13   0.00000000000000E+00   0.00000000000000E+00
      0.00000000000000E+00   1.81752221945586E-11  -1.96841831035990E-16  -1.76316723368161E-08  -1.76134973114634E-08
     -6.23425701374838E-14  -4.50000000000000E+01  -4.50000000000000E+01   0.00000000000000E+00   1.11809920191235E-07
     -6.26630160158712E-15  -2.85338573278739E-07  -1.73528659353805E-07  -1.72499990031622E-13
      2.61924429094468E-09
      8.00000000000000E-01   8.00000000000000E-01   0.00000000000000E+00  -1.24006563696199E-11   1.11336921585271E-07
     -3.16056344013954E-12   1.11321360365461E-07   2.34816297777152E-13   0.00000000000000E+00   0.00000000000000E+00
      0.00000000000000E+00   1.15442736784482E-11  -1.96673776767570E-16   3.88913961890547E-08   3.89029402660593E-08
     -6.23403406140916E-14  -4.50000000000000E+01  -4.50000000000000E+01   0.00000000000000E+00   1.27925285152511E-07
     -6.26575565774275E-15  -2.78149579518276E-07  -1.50224300631520E-07  -1.72475957163061E-13
      2.76921895892618E-09
      8.00000000000000E-01   8.00000000000000E-01   0.00000000000000E+00  -8.07911315105076E-12   7.22192482551704E-08
     -2.80186557969477E-12   7.22083672764397E-08   2.34788775422111E-13   0.00000000000000E+00   0.00000000000000E+00
      0.00000000000000E+00   6.80978570800723E-12  -1.96538419441508E-16   6.48678716791746E-08   6.48746812683442E-08
     -6.23326102407519E-14  -4.50000000000000E+01  -4.50000000000000E+01   0.00000000000000E+00   1.35779303949355E-07
     -6.26530599006151E-15  -2.72862346228832E-07  -1.37083048544784E-07  -1.72456165181360E-13
      2.88169995991231E-09
      8.00000000000000E-01   8.00000000000000E-01   0.00000000000000E+00  -5.60602916262507E-12   5.25479693209483E-08
     -2.56147636105674E-12   5.25398018154246E-08   2.34765410149388E-13   0.00000000000000E+00   0.00000000000000E+00
      0.00000000000000E+00   3.97257913041463E-12  -1.96438229960477E-16   7.62809203588725E-08   7.62848927415647E-08
     -6.23247658695352E-14  -4.50000000000000E+01  -4.50000000000000E+01   0.00000000000000E+00   1.40106573455358E-07
     -6.26495332649254E-15  -2.68931261747394E-07  -1.28824694556989E-07  -1.72440644279854E-13
      2.96606071065190E-09
      8.00000000000000E-01   8.00000000000000E-01   0.00000000000000E+00  -4.17419138048764E-12   4.19756445795725E-08
     -2.39515071095955E-12   4.19690752374811E-08   2.34746923798565E-13   0.00000000000000E+00   0.00000000000000E+00
      0.00000000000000E+00   2.31563237502655E-12  -1.96366287985261E-16   8.12631159606814E-08   8.12654313966901E-08
     -6.23182119553356E-14  -4.50000000000000E+01  -4.50000000000000E+01   0.00000000000000E+00   1.42748091804617E-07
     -6.26468218116505E-15  -2.65982592174106E-07  -1.23234506634171E-07  -1.72428711843230E-13
      3.09260183676129E-09
      8.00000000000000E-01   8.00000000000000E-01   0.00000000000000E+00  -2.62928502438550E-12   3.09567931921203E-08
     -2.16555617925173E-12   3.09519983509166E-08   2.34718298344746E-13   0.00000000000000E+00   0.00000000000000E+00
      0.00000000000000E+00   5.02094769383717E-13  -1.96266253914401E-16   8.45311837884233E-08   8.45316856869264E-08
     -6.23078612652792E-14  -4.50000000000000E+01  -4.50000000000000E+01   0.00000000000000E+00   1.46027164382444E-07
     -6.26426688818948E-15  -2.61510842156021E-07  -1.15483684037843E-07  -1.72410437079467E-13
      3.28241352592538E-09
      8.00000000000000E-01   8.00000000000000E-01   0.00000000000000E+00  -1.31169112398493E-12   2.14355424856886E-08
     -1.86071736537435E-12   2.14323700771992E-08   2.34674504168182E-13   0.00000000000000E+00   0.00000000000000E+00
      0.00000000000000E+00  -1.06659503723621E-12  -1.96137605793446E-16   8.32878777133723E-08   8.32868109221975E-08
     -6.22921519337859E-14  -4.50000000000000E+01  -4.50000000000000E+01   0.00000000000000E+00   1.49789418356103E-07
     -6.26362860048876E-15  -2.54508593091871E-07  -1.04719180999397E-07  -1.72382352234396E-13
      3.35359290936191E-09
      8.00000000000000E-01   8.00000000000000E-01   0.00000000000000E+00  -1.03354013511719E-12   1.92597095298325E-08
     -1.75750286787090E-12   1.92569184868295E-08   2.34658035467967E-13   0.00000000000000E+00   0.00000000000000E+00
      0.00000000000000E+00  -1.39707719752508E-12  -1.96096329928665E-16   8.15961964530336E-08   8.15947991797398E-08
     -6.22863845435854E-14  -4.50000000000000E+01  -4.50000000000000E+01   0.00000000000000E+00   1.50881389308631E-07
     -6.26338537248742E-15  -2.51733100711815E-07  -1.00851717666569E-07  -1.72371650924381E-13
      3.46036198451671E-09
      8.00000000000000E-01   8.00000000000000E-01   0.00000000000000E+00  -7.46380905711488E-13   1.67793312612189E-08
     -1.61288432064796E-12   1.67769719959925E-08   2.34633467943320E-13   0.00000000000000E+00   0.00000000000000E+00
      0.00000000000000E+00  -1.73194434462368E-12  -1.96041307523195E-16   7.83820790921094E-08   7.83803469517235E-08
     -6.22779976737592E-14  -4.50000000000000E+01  -4.50000000000000E+01   0.00000000000000E+00   1.52177617920670E-07
     -6.26301758845866E-15  -2.47334930605368E-07  -9.51573189477160E-08  -1.72355470269561E-13
      3.62051559724890E-09
      8.00000000000000E-01   8.00000000000000E-01   0.00000000000000E+00  -5.04116176543883E-13   1.41616859958813E-08
     -1.41709887407418E-12   1.41597647808307E-08   2.34597145327797E-13   0.00000000000000E+00   0.00000000000000E+00
      0.00000000000000E+00  -1.98848814799207E-12  -1.95972813929763E-16   7.26577816469423E-08   7.26557929628215E-08
     -6.22661387156898E-14  -4.50000000000000E+01  -4.50000000000000E+01   0.00000000000000E+00   1.53222271375090E-07
     -6.26246149704192E-15  -2.40037822856281E-07  -8.68155577436524E-08  -1.72331006612108E-13
      3.86074601634720E-09
      8.00000000000000E-01   8.00000000000000E-01   0.00000000000000E+00  -3.45631458133479E-13   1.14858552279561E-08
     -1.16555462820273E-12   1.14843440418698E-08   2.34544461845638E-13   0.00000000000000E+00   0.00000000000000E+00
      0.00000000000000E+00  -2.08551064063910E-12  -1.95896037078085E-16   6.32670547116539E-08   6.32649690051172E-08
     -6.22501805581911E-14  -4.50000000000000E+01  -4.50000000000000E+01   0.00000000000000E+00   1.52230942650067E-07
     -6.26162660883590E-15  -2.26980249435427E-07  -7.47493130469870E-08  -1.72294281287447E-13
      4.04091883067092E-09
      8.00000000000000E-01   8.00000000000000E-01   0.00000000000000E+00  -2.93165950471289E-13   9.95392900580645E-09
     -1.00598857511395E-12   9.95262985128086E-09   2.34506829426990E-13   0.00000000000000E+00   0.00000000000000E+00
      0.00000000000000E+00  -2.03942674700442E-12  -1.95854510431220E-16   5.61651016368435E-08   5.61630620142419E-08
     -6.22397083670900E-14  -4.50000000000000E+01  -4.50000000000000E+01   0.00000000000000E+00   1.49064626756792E-07
     -6.26100911498416E-15  -2.15180312361306E-07  -6.61156918655229E-08  -1.72267121059901E-13
      4.17604844141371E-09
      8.00000000000000E-01   8.00000000000000E-01   0.00000000000000E+00  -2.67452984262176E-13   8.94240763248154E-09
     -9.00551550455048E-13   8.94123962794682E-09   2.34479919887742E-13   0.00000000000000E+00   0.00000000000000E+00