DF-ISE text

Info {
  version   = 1.0
  type      = xyplot
  datasets  = [
    "time"
    "Ntop OuterVoltage" "Ntop InnerVoltage" "Ntop QuasiFermiPotential" "Ntop DisplacementCurrent" "Ntop eCurrent"
    "Ntop hCurrent" "Ntop TotalCurrent" "Ntop Charge" "Ptop OuterVoltage" "Ptop InnerVoltage"
    "Ptop QuasiFermiPotential" "Ptop DisplacementCurrent" "Ptop eCurrent" "Ptop hCurrent" "Ptop TotalCurrent"
    "Ptop Charge" "Pbot OuterVoltage" "Pbot InnerVoltage" "Pbot QuasiFermiPotential" "Pbot DisplacementCurrent"
    "Pbot eCurrent" "Pbot hCurrent" "Pbot TotalCurrent" "Pbot Charge" ]
  functions = [
    Time
    OuterVoltage InnerVoltage QuasiFermiPotential DisplacementCurrent eCurrent
    hCurrent TotalCurrent Charge OuterVoltage InnerVoltage
    QuasiFermiPotential DisplacementCurrent eCurrent hCurrent TotalCurrent
    Charge OuterVoltage InnerVoltage QuasiFermiPotential DisplacementCurrent
    eCurrent hCurrent TotalCurrent Charge ]
}

Data {
      5.00000000000000E-13
      8.00000000000000E-01   8.00000000000000E-01   0.00000000000000E+00   9.38822057545196E-15   7.19466112079650E-12
     -6.61848744809156E-12   5.85561893280400E-13   2.34224766837352E-13   0.00000000000000E+00   0.00000000000000E+00
      0.00000000000000E+00  -1.21672331914175E-13  -1.97157898428248E-16   1.75443053677435E-09   1.75430866728453E-09
     -6.21801123149399E-14  -4.50000000000000E+01  -4.50000000000000E+01   0.00000000000000E+00  -3.94435096486687E-13
      1.31984391385206E-11  -1.76769823321985E-09  -1.75489422917781E-09  -1.72044654522412E-13
      1.25000000000000E-12
      8.00000000000000E-01   8.00000000000000E-01   0.00000000000000E+00   1.00506223613026E-13   3.23994860100456E-11
     -3.05397410046282E-11   1.96025122903039E-12   2.34224766837718E-13   0.00000000000000E+00   0.00000000000000E+00
      0.00000000000000E+00  -3.93264433116866E-14  -1.97157898425950E-16   1.75549187916276E-09   1.75545235556155E-09
     -6.21801123143598E-14  -4.50000000000000E+01  -4.50000000000000E+01   0.00000000000000E+00  -2.25394818062234E-12
      6.09108437320186E-11  -1.81606950234197E-09  -1.75741260679058E-09  -1.72044654523358E-13
      2.37500000000000E-12
      8.00000000000000E-01   8.00000000000000E-01   0.00000000000000E+00   7.68961987289031E-13   2.70041303639722E-10
     -2.52688883142723E-10   1.81213824842887E-11   2.34224766843058E-13   0.00000000000000E+00   0.00000000000000E+00
      0.00000000000000E+00   1.02564265564897E-12  -1.97157898400011E-16   1.76825279318294E-09   1.76927823868069E-09
     -6.21801123056633E-14  -4.50000000000000E+01  -4.50000000000000E+01   0.00000000000000E+00  -2.44436393272407E-11
      5.03865846351752E-10  -2.26682182818949E-09  -1.78739962116498E-09  -1.72044654537394E-13
      4.06250000000000E-12
      8.00000000000000E-01   8.00000000000000E-01   0.00000000000000E+00   1.15305233181830E-11   4.19445551935795E-09
     -3.83334895758783E-09   3.72637085088308E-10   2.34224766999893E-13   0.00000000000000E+00   0.00000000000000E+00
      0.00000000000000E+00   1.47528985949892E-11  -1.97157897803840E-16   2.06382980964245E-09   2.07858251107954E-09
     -6.21801120424607E-14  -4.50000000000000E+01  -4.50000000000000E+01   0.00000000000000E+00  -5.15699730946342E-10
      7.63978024822767E-09  -9.57530011344918E-09  -2.45121959616785E-09  -1.72044654957432E-13
      6.59375000000000E-12
      8.00000000000000E-01   8.00000000000000E-01   0.00000000000000E+00   2.29659098668120E-10   8.73426891975122E-08
     -7.67145226383680E-08   1.08578256578124E-08   2.34224773682992E-13   0.00000000000000E+00   0.00000000000000E+00
      0.00000000000000E+00   2.97589793846015E-10  -1.97157879603213E-16   1.10809993614161E-08   1.13785889581042E-08
     -6.21801005222600E-14  -4.50000000000000E+01  -4.50000000000000E+01   0.00000000000000E+00  -1.51571127863192E-08
      1.52755479051752E-07  -1.59834780881350E-07  -2.22364146159165E-08  -1.72044673160732E-13
      1.03906250000000E-11
      8.00000000000000E-01   8.00000000000000E-01   0.00000000000000E+00   1.91912721957386E-09   7.83112554569030E-07
     -6.38512850314855E-07   1.46518831473749E-07   2.34224915378680E-13   0.00000000000000E+00   0.00000000000000E+00
      0.00000000000000E+00   2.46449696070573E-09  -1.97157639653799E-16   1.29767378257237E-07   1.32231875020785E-07
     -6.21798527900058E-14  -4.50000000000000E+01  -4.50000000000000E+01   0.00000000000000E+00  -2.04820204198242E-07
      1.26924292999211E-06  -1.34317343228840E-06  -2.78750706494534E-07  -1.72045062588674E-13
      1.60859375000000E-11
      8.00000000000000E-01   8.00000000000000E-01   0.00000000000000E+00   1.12024221228879E-09   7.00440957895006E-07
     -3.41682073480738E-07   3.59879126626557E-07   2.34225659354921E-13   0.00000000000000E+00   0.00000000000000E+00
      0.00000000000000E+00   1.15681234906324E-09  -1.97157276009958E-16   3.08542846421247E-07   3.09699658573153E-07
     -6.21785792268746E-14  -4.50000000000000E+01  -4.50000000000000E+01   0.00000000000000E+00  -4.91443252986244E-07
      6.68803774232623E-07  -8.46939306446088E-07  -6.69578785199708E-07  -1.72047080128047E-13
      2.46289062500000E-11
      8.00000000000000E-01   8.00000000000000E-01   0.00000000000000E+00   1.49147718773883E-10   4.79238683626060E-07
     -8.53464458548900E-09   4.70853186759345E-07   2.34227517102875E-13   0.00000000000000E+00   0.00000000000000E+00
      0.00000000000000E+00  -1.83274880500026E-10  -1.97157170075033E-16   3.58667862252858E-07   3.58484587175201E-07
     -6.21756844980970E-14  -4.50000000000000E+01  -4.50000000000000E+01   0.00000000000000E+00  -6.00868006594560E-07
      1.23928080928668E-09  -2.29709048149271E-07  -8.29337773934543E-07  -1.72051832604778E-13
      3.74433593750000E-11
      8.00000000000000E-01   8.00000000000000E-01   0.00000000000000E+00   1.08506095529093E-10   5.16430918519676E-07
     -7.19504681888251E-09   5.09344377796323E-07   2.34230809611803E-13   0.00000000000000E+00   0.00000000000000E+00
      0.00000000000000E+00  -1.38359968145944E-10  -1.97157241203926E-16   3.20437997787269E-07   3.20299637621966E-07
     -6.21713671824239E-14  -4.50000000000000E+01  -4.50000000000000E+01   0.00000000000000E+00  -5.86748049024124E-07
     -6.25619360426477E-15  -2.42895960137971E-07  -8.29644015418289E-07  -1.72059442429380E-13
      5.66650390625000E-11
      8.00000000000000E-01   8.00000000000000E-01   0.00000000000000E+00   7.41803435081272E-11   5.55593199383338E-07
     -6.23053690821032E-09   5.49436842818636E-07   2.34236199224599E-13   0.00000000000000E+00   0.00000000000000E+00
      0.00000000000000E+00  -9.97064345480506E-11  -1.97157320404787E-16   2.77298472293951E-07   2.77198765662246E-07
     -6.21656798275743E-14  -4.50000000000000E+01  -4.50000000000000E+01   0.00000000000000E+00  -5.65982941312790E-07
     -6.25653545922393E-15  -2.60652660911556E-07  -8.26635608480882E-07  -1.72070519397026E-13
      8.54975585937500E-11
      8.00000000000000E-01   8.00000000000000E-01   0.00000000000000E+00   4.44037075821378E-11   5.92303061937812E-07
     -5.01924425549533E-09   5.87328221389898E-07   2.34244866056196E-13   0.00000000000000E+00   0.00000000000000E+00
      0.00000000000000E+00  -6.56591769202343E-11  -1.97157400657537E-16   2.32544051766203E-07   2.32478392392126E-07
     -6.21584255074781E-14  -4.50000000000000E+01  -4.50000000000000E+01   0.00000000000000E+00  -5.38801572312129E-07
     -6.25689620431804E-15  -2.81005035212996E-07  -8.19806613782020E-07  -1.72086440548717E-13
      1.28746337890625E-10
      8.00000000000000E-01   8.00000000000000E-01   0.00000000000000E+00   2.05069426254403E-11   6.20513333039818E-07
     -3.62751320053516E-09   6.16906326781908E-07   2.34258446345850E-13   0.00000000000000E+00   0.00000000000000E+00
      0.00000000000000E+00  -3.81161394306586E-11  -1.97157472070416E-16   1.90584579477175E-07   1.90546463140586E-07
     -6.21494311047849E-14  -4.50000000000000E+01  -4.50000000000000E+01   0.00000000000000E+00  -5.05839511929381E-07
     -6.25740854016651E-15  -3.01613271735704E-07  -8.07452789922493E-07  -1.72109015241064E-13
      1.61182922363281E-10
      8.00000000000000E-01   8.00000000000000E-01   0.00000000000000E+00   1.06859861765352E-11   6.29642028066386E-07
     -2.84650927358429E-09   6.26806204778979E-07   2.34268764296164E-13   0.00000000000000E+00   0.00000000000000E+00
      0.00000000000000E+00  -2.69582846621631E-11  -1.97157502375888E-16   1.70673074996195E-07   1.70646116514375E-07
     -6.21436695776986E-14  -4.50000000000000E+01  -4.50000000000000E+01   0.00000000000000E+00  -4.85877967859120E-07
     -6.25777390148596E-15  -3.11574347176461E-07  -7.97452321293355E-07  -1.72125094718464E-13
      2.09837799072266E-10
      8.00000000000000E-01   8.00000000000000E-01   0.00000000000000E+00   2.40218432912834E-12   6.33687749573354E-07
     -1.97951824994031E-09   6.31710633507743E-07   2.34284130991126E-13   0.00000000000000E+00   0.00000000000000E+00
      0.00000000000000E+00  -1.78670077042392E-11  -1.97157527414804E-16   1.50184252127642E-07   1.50166384922780E-07
     -6.21360118389891E-14  -4.50000000000000E+01  -4.50000000000000E+01   0.00000000000000E+00  -4.60975061318165E-07
     -6.25829741712177E-15  -3.20901950854064E-07  -7.81877018430527E-07  -1.72148119152138E-13
      2.46328956604004E-10
      8.00000000000000E-01   8.00000000000000E-01   0.00000000000000E+00  -7.61707879362948E-13   6.32488621988038E-07
     -1.51105632125260E-09   6.30976803958906E-07   2.34295484086796E-13   0.00000000000000E+00   0.00000000000000E+00
      0.00000000000000E+00  -1.46024619226441E-11  -1.97157536383744E-16   1.38951270118069E-07   1.38936667458988E-07
     -6.21308367192088E-14  -4.50000000000000E+01  -4.50000000000000E+01   0.00000000000000E+00  -4.45051579030408E-07
     -6.25867339621934E-15  -3.24861886128811E-07  -7.69913471417892E-07  -1.72164647367588E-13
      3.01065692901611E-10
      8.00000000000000E-01   8.00000000000000E-01   0.00000000000000E+00  -3.01669263375938E-12   6.27854936534865E-07
     -1.00976642863350E-09   6.26842153413598E-07   2.34312184518015E-13   0.00000000000000E+00   0.00000000000000E+00
      0.00000000000000E+00  -1.25009040468888E-11  -1.97157542212391E-16   1.24901374308031E-07   1.24888873206826E-07
     -6.21237621262145E-14  -4.50000000000000E+01  -4.50000000000000E+01   0.00000000000000E+00  -4.23869291024299E-07
     -6.25921435652476E-15  -3.27861729336912E-07  -7.51731026620425E-07  -1.72188422391800E-13
      3.42118245124817E-10
      8.00000000000000E-01   8.00000000000000E-01   0.00000000000000E+00  -3.56933584228641E-12   6.23512680350462E-07
     -7.49748052597807E-10   6.22759362962022E-07   2.34324461518438E-13   0.00000000000000E+00   0.00000000000000E+00
      0.00000000000000E+00  -1.21628032924555E-11  -1.97157543844057E-16   1.15253058845575E-07   1.15240895845125E-07
     -6.21189366728387E-14  -4.50000000000000E+01  -4.50000000000000E+01   0.00000000000000E+00  -4.09405126236611E-07
     -6.25960355118144E-15  -3.28595126310933E-07  -7.38000258807147E-07  -1.72205524845600E-13
      4.03697073459625E-10
      8.00000000000000E-01   8.00000000000000E-01   0.00000000000000E+00  -3.55009687266281E-12   6.17108644775645E-07
     -4.82174797572194E-10   6.16622919881200E-07   2.34342540801867E-13   0.00000000000000E+00   0.00000000000000E+00
      0.00000000000000E+00  -1.25282943445965E-11  -1.97157546264708E-16   1.00762036722172E-07   1.00749508230670E-07
     -6.21124350915329E-14  -4.50000000000000E+01  -4.50000000000000E+01   0.00000000000000E+00  -3.89055517929899E-07
     -6.26016295745209E-15  -3.28316903921806E-07  -7.17372428111868E-07  -1.72230105710334E-13
      4.49881194710732E-10
      8.00000000000000E-01   8.00000000000000E-01   0.00000000000000E+00  -3.19322008115922E-12   6.12839053711484E-07
     -3.49300358675946E-10   6.12486560132727E-07   2.34355887522475E-13   0.00000000000000E+00   0.00000000000000E+00
      0.00000000000000E+00  -1.31310684071922E-11  -1.97157549817955E-16   8.94483807949870E-08   8.94352495294223E-08
     -6.21081508659211E-14  -4.50000000000000E+01  -4.50000000000000E+01   0.00000000000000E+00  -3.74488164173421E-07
     -6.26056419947183E-15  -3.27433639228163E-07  -7.01921809662148E-07  -1.72247736656555E-13
      5.19157376587391E-10
      8.00000000000000E-01   8.00000000000000E-01   0.00000000000000E+00  -2.47688090162777E-12   6.07664856395963E-07
     -2.17986686595617E-10   6.07444392828466E-07   2.34375676264600E-13   0.00000000000000E+00   0.00000000000000E+00
      0.00000000000000E+00  -1.41663034021134E-11  -1.97157560211810E-16   7.13987296268427E-08   7.13845631262830E-08
     -6.21027326104301E-14  -4.50000000000000E+01  -4.50000000000000E+01   0.00000000000000E+00  -3.53288276059188E-07
     -6.26113782932125E-15  -3.25540673634423E-07  -6.78828955954749E-07  -1.72272943654170E-13
      5.71114512994885E-10
      8.00000000000000E-01   8.00000000000000E-01   0.00000000000000E+00  -1.91033763475994E-12   6.04787957212756E-07
     -1.55615291845271E-10   6.04630431583276E-07   2.34390403194282E-13   0.00000000000000E+00   0.00000000000000E+00
      0.00000000000000E+00  -1.49203714533591E-11  -1.97157572833371E-16   5.69753501278259E-08   5.69604295592150E-08
     -6.20995083607371E-14  -4.50000000000000E+01  -4.50000000000000E+01   0.00000000000000E+00  -3.37729913251867E-07
     -6.26154631174924E-15  -3.23860941629078E-07  -6.61590861142492E-07  -1.72290894833544E-13
      6.49050217606127E-10
      8.00000000000000E-01   8.00000000000000E-01   0.00000000000000E+00  -1.13118104434089E-12   6.01959703067709E-07
     -9.63294636666747E-11   6.01862242422998E-07   2.34412434661917E-13   0.00000000000000E+00   0.00000000000000E+00
      0.00000000000000E+00  -1.59195923907554E-11  -1.97157600408911E-16   3.40316936980796E-08   3.40157739085312E-08
     -6.20961158555144E-14  -4.50000000000000E+01  -4.50000000000000E+01   0.00000000000000E+00  -3.14733109551445E-07
     -6.26212478627077E-15  -3.21144900517960E-07  -6.35878016331530E-07  -1.72316318806403E-13
      7.07501996064559E-10
      8.00000000000000E-01   8.00000000000000E-01   0.00000000000000E+00  -6.32356585392527E-13   6.00863553227049E-07
     -6.92910587755111E-11   6.00793629811688E-07   2.34428981298220E-13   0.00000000000000E+00   0.00000000000000E+00
      0.00000000000000E+00  -1.65341999392130E-11  -1.97157627997109E-16   1.59315301596764E-08   1.59149957625796E-08
     -6.20947644750042E-14  -4.50000000000000E+01  -4.50000000000000E+01   0.00000000000000E+00  -2.97681388115519E-07
     -6.26253198116527E-15  -3.19027231196216E-07  -6.16708625574267E-07  -1.72334216823214E-13
      7.95179663752206E-10
      8.00000000000000E-01   8.00000000000000E-01   0.00000000000000E+00  -4.53486870104723E-14   6.00515510504425E-07
     -4.43604246445049E-11   6.00471104731094E-07   2.34453957030367E-13   0.00000000000000E+00   0.00000000000000E+00
      0.00000000000000E+00  -1.72328798097882E-11  -1.97157679450475E-16  -1.23189773633196E-08  -1.23362104402871E-08
     -6.20947523846832E-14  -4.50000000000000E+01  -4.50000000000000E+01   0.00000000000000E+00  -2.72332294240409E-07
     -6.26310041470842E-15  -3.15802593787296E-07  -5.88134894290806E-07  -1.72359204645685E-13
      9.26696165283676E-10
      8.00000000000000E-01   8.00000000000000E-01   0.00000000000000E+00   4.54223470459326E-13   6.01946312764945E-07
     -2.56310319635568E-11   6.01921135956452E-07   2.34491986525795E-13   0.00000000000000E+00   0.00000000000000E+00
      0.00000000000000E+00  -1.77567224788516E-11  -1.97157767130326E-16  -5.62438158918868E-08  -5.62615728115234E-08
     -6.20994415645136E-14  -4.50000000000000E+01  -4.50000000000000E+01   0.00000000000000E+00  -2.34719041262309E-07
     -6.26385874306937E-15  -3.10940515618761E-07  -5.45659563144929E-07  -1.72392544961280E-13
      1.02533354143228E-09
      8.00000000000000E-01   8.00000000000000E-01   0.00000000000000E+00   4.97368408791706E-13   6.03717886696318E-07
     -1.88576333671595E-11   6.03699526431360E-07   2.34521060263477E-13   0.00000000000000E+00   0.00000000000000E+00
      0.00000000000000E+00  -1.76982093113246E-11  -1.97157815676476E-16  -8.95896757039195E-08  -8.96073741103887E-08
     -6.21067416543327E-14  -4.50000000000000E+01  -4.50000000000000E+01   0.00000000000000E+00  -2.06788929339013E-07
     -6.26435391967281E-15  -3.07303216717605E-07  -5.14092152320971E-07  -1.72414318609143E-13
      1.17328960565518E-09
      8.00000000000000E-01   8.00000000000000E-01   0.00000000000000E+00  -1.56945866323847E-13   6.05328750600121E-07
     -1.33407461141290E-11   6.05315252908141E-07   2.34565553365000E-13   0.00000000000000E+00   0.00000000000000E+00
      0.00000000000000E+00  -1.66366439402715E-11  -1.97157710336890E-16  -1.38102681716483E-07  -1.38119318557581E-07
     -6.21237105428151E-14  -4.50000000000000E+01  -4.50000000000000E+01   0.00000000000000E+00  -1.65314291774568E-07
     -6.26497980690775E-15  -3.01881636311010E-07  -4.67195934350557E-07  -1.72441842822185E-13
      1.28425665382236E-09
      8.00000000000000E-01   8.00000000000000E-01   0.00000000000000E+00  -1.40704790930047E-12   6.03760082203116E-07
     -1.10124818258736E-11   6.03747662673381E-07   2.34599410198460E-13   0.00000000000000E+00   0.00000000000000E+00
      0.00000000000000E+00  -1.47797832791489E-11  -1.97157256296255E-16  -1.71325229547517E-07  -1.71340009527953E-07
     -6.21409307176878E-14  -4.50000000000000E+01  -4.50000000000000E+01   0.00000000000000E+00  -1.34563105781253E-07
     -6.26535808697782E-15  -2.97844541098818E-07  -4.32407653145429E-07  -1.72458479480773E-13
      1.36748193994775E-09
      8.00000000000000E-01   8.00000000000000E-01   0.00000000000000E+00  -2.91756432599782E-12   5.99587985150321E-07
     -9.75678459058405E-12   5.99575310801405E-07   2.34624831672963E-13   0.00000000000000E+00   0.00000000000000E+00
      0.00000000000000E+00  -1.26050236916128E-11  -1.97156459861288E-16  -1.92989869121168E-07  -1.93002474342016E-07
     -6.21561037497280E-14  -4.50000000000000E+01  -4.50000000000000E+01   0.00000000000000E+00  -1.11739191588306E-07
     -6.26559110836412E-15  -2.94833638605494E-07  -4.06572836459391E-07  -1.72468727923234E-13
      1.49231986913582E-09
      8.00000000000000E-01   8.00000000000000E-01   0.00000000000000E+00  -6.14648307377114E-12   5.85801063698202E-07
     -8.32175085981251E-12   5.85786595464268E-07   2.34662317701413E-13   0.00000000000000E+00   0.00000000000000E+00
      0.00000000000000E+00  -7.93017555965214E-12  -1.97153820488463E-16  -2.17391368073268E-07  -2.17399298445981E-07
     -6.21817480196533E-14  -4.50000000000000E+01  -4.50000000000000E+01   0.00000000000000E+00  -7.80422291795327E-08
     -6.26586036543344E-15  -2.90345061572894E-07  -3.68387297018287E-07  -1.72480569681760E-13
      1.58594831602688E-09
      8.00000000000000E-01   8.00000000000000E-01   0.00000000000000E+00  -9.24900506153827E-12   5.67763156920886E-07
     -7.48007739768392E-12   5.67746427838427E-07   2.34689275698146E-13   0.00000000000000E+00   0.00000000000000E+00
      0.00000000000000E+00  -3.38813307320043E-12  -1.97149978099357E-16  -2.27369954136119E-07  -2.27373342466342E-07
     -6.22025565983465E-14  -4.50000000000000E+01  -4.50000000000000E+01   0.00000000000000E+00  -5.33720382318399E-08
     -6.26600020860923E-15  -2.87001040874244E-07  -3.40373085372085E-07  -1.72486719099798E-13
      1.72639098636346E-09
      8.00000000000000E-01   8.00000000000000E-01   0.00000000000000E+00  -1.44023672187997E-11   5.25761402720096E-07
     -6.45350163774290E-12   5.25740546851239E-07   2.34726128488555E-13   0.00000000000000E+00   0.00000000000000E+00
      0.00000000000000E+00   4.38928287006562E-12  -1.97139017190655E-16  -2.25808349643471E-07  -2.25803960557740E-07
     -6.22344174117843E-14  -4.50000000000000E+01  -4.50000000000000E+01   0.00000000000000E+00  -1.79132164407245E-08
     -6.26611378406789E-15  -2.82023363586661E-07  -2.99936586293499E-07  -1.72491711076772E-13
      1.83172298911590E-09
      8.00000000000000E-01   8.00000000000000E-01   0.00000000000000E+00  -1.80405793574878E-11   4.82308663571496E-07
     -5.81846208011940E-12   4.82284804530059E-07   2.34749679935887E-13   0.00000000000000E+00   0.00000000000000E+00
      0.00000000000000E+00   1.01890662223234E-11  -1.97124796814385E-16  -2.10933797556962E-07  -2.10923608687864E-07
     -6.22574002244698E-14  -4.50000000000000E+01  -4.50000000000000E+01   0.00000000000000E+00   6.96116541152603E-09
     -6.26612680090967E-15  -2.78322354987593E-07  -2.71361195842193E-07  -1.72492279711418E-13
      1.98972099324456E-09
      8.00000000000000E-01   8.00000000000000E-01   0.00000000000000E+00  -2.17562205568433E-11   4.01881424220196E-07
     -5.01855332213914E-12   4.01854649446317E-07   2.34775992785772E-13   0.00000000000000E+00   0.00000000000000E+00
      0.00000000000000E+00   1.69731328937453E-11  -1.97089246046423E-16  -1.69413370538512E-07  -1.69396397602707E-07
     -6.22874882501777E-14  -4.50000000000000E+01  -4.50000000000000E+01   0.00000000000000E+00   4.03707031962527E-08
     -6.26604114724323E-15  -2.72828948773821E-07  -2.32458251843610E-07  -1.72488504535594E-13
      2.10821949634105E-09
      8.00000000000000E-01   8.00000000000000E-01   0.00000000000000E+00  -2.25614659072585E-11   3.34809097576714E-07
     -4.51325095680053E-12   3.34782022859850E-07   2.34787517902835E-13   0.00000000000000E+00   0.00000000000000E+00
      0.00000000000000E+00   1.96393493290279E-11  -1.97048545494497E-16  -1.27767135911859E-07  -1.27747496759579E-07
     -6.23050800905610E-14  -4.50000000000000E+01  -4.50000000000000E+01   0.00000000000000E+00   6.17252828581075E-08
     -6.26590337796834E-15  -2.68759802692475E-07  -2.07034526100271E-07  -1.72482437812274E-13
      2.28596725098579E-09
      8.00000000000000E-01   8.00000000000000E-01   0.00000000000000E+00  -2.04964425176582E-11   2.36711081101891E-07
     -3.87065927438774E-12   2.36686714000099E-07   2.34790983337192E-13   0.00000000000000E+00   0.00000000000000E+00
      0.00000000000000E+00   1.93127230304621E-11  -1.96961458795501E-16  -6.11280051872942E-08  -6.11086926612252E-08
     -6.23218388222239E-14  -4.50000000000000E+01  -4.50000000000000E+01   0.00000000000000E+00   8.71726884014162E-08
     -6.26560141441902E-15  -2.62750703474689E-07  -1.75578021338875E-07  -1.72469144514969E-13
      2.41927806696935E-09
      8.00000000000000E-01   8.00000000000000E-01   0.00000000000000E+00  -1.70935998761624E-11   1.72736991651008E-07
     -3.46233725731455E-12   1.72716435713874E-07   2.34783516038899E-13   0.00000000000000E+00   0.00000000000000E+00
      0.00000000000000E+00   1.64124042695264E-11  -1.96876285050746E-16  -1.56639223490948E-08  -1.56475101417015E-08
     -6.23269541096150E-14  -4.50000000000000E+01  -4.50000000000000E+01   0.00000000000000E+00   1.01257296611054E-07
     -6.26531554718219E-15  -2.58326215917911E-07  -1.57068925572173E-07  -1.72456561929285E-13
      2.61924429094468E-09
      8.00000000000000E-01   8.00000000000000E-01   0.00000000000000E+00  -1.11905597779361E-11   1.00662884271573E-07
     -2.94051278630979E-12   1.00648753199009E-07   2.34759721024364E-13   0.00000000000000E+00   0.00000000000000E+00
      0.00000000000000E+00   1.04109168610047E-11  -1.96725301332071E-16   3.53469067171039E-08   3.53573174372396E-08
     -6.23249206532326E-14  -4.50000000000000E+01  -4.50000000000000E+01   0.00000000000000E+00   1.15821685775698E-07
     -6.26482107448346E-15  -2.51827750147125E-07  -1.36006070636248E-07  -1.72434800371132E-13
      2.76921895892618E-09
      8.00000000000000E-01   8.00000000000000E-01   0.00000000000000E+00  -7.28998320782871E-12   6.53650992019514E-08
     -2.60690827277283E-12   6.53552023104708E-08   2.34734812388461E-13   0.00000000000000E+00   0.00000000000000E+00
      0.00000000000000E+00   6.13844025471456E-12  -1.96603301416292E-16   5.87681438572750E-08   5.87742821009264E-08
     -6.23179303627869E-14  -4.50000000000000E+01  -4.50000000000000E+01   0.00000000000000E+00   1.22919495272202E-07
     -6.26441387926317E-15  -2.47048973419186E-07  -1.24129484411397E-07  -1.72416882025675E-13
      2.88169995991231E-09
      8.00000000000000E-01   8.00000000000000E-01   0.00000000000000E+00  -5.05933165373582E-12   4.76132756560522E-08
     -2.38312562006389E-12   4.76058331987784E-08   2.34713674182401E-13   0.00000000000000E+00   0.00000000000000E+00
      0.00000000000000E+00   3.58031131329607E-12  -1.96512831369455E-16   6.90550764290947E-08   6.90586565438951E-08
     -6.23108427517071E-14  -4.50000000000000E+01  -4.50000000000000E+01   0.00000000000000E+00   1.26831789348831E-07
     -6.26409455218245E-15  -2.43496272827410E-07  -1.16664489742674E-07  -1.72402831430693E-13
      2.96606071065190E-09
      8.00000000000000E-01   8.00000000000000E-01   0.00000000000000E+00  -3.76884679743355E-12   3.80687938173610E-08
     -2.22823458896452E-12   3.80627967359746E-08   2.34696952321296E-13   0.00000000000000E+00   0.00000000000000E+00
      0.00000000000000E+00   2.08709668512542E-12  -1.96447806500931E-16   7.35454042266646E-08   7.35474911269019E-08
     -6.23049226772733E-14  -4.50000000000000E+01  -4.50000000000000E+01   0.00000000000000E+00   1.29221301466897E-07
     -6.26384904597562E-15  -2.40831583065925E-07  -1.11610287862877E-07  -1.72392029644023E-13
      3.02933127370660E-09
      8.00000000000000E-01   8.00000000000000E-01   0.00000000000000E+00  -3.00157734335616E-12   3.25587076482448E-08
     -2.11870105515681E-12   3.25535873698463E-08   2.34684090271052E-13   0.00000000000000E+00   0.00000000000000E+00
      0.00000000000000E+00   1.18745386305391E-12  -1.96401367856300E-16   7.54841052212746E-08   7.54852924787363E-08
     -6.23002864062692E-14  -4.50000000000000E+01  -4.50000000000000E+01   0.00000000000000E+00   1.30783182812276E-07
     -6.26366208000719E-15  -2.38822056397196E-07  -1.08038879848583E-07  -1.72383803864782E-13
      3.12423711828864E-09
      8.00000000000000E-01   8.00000000000000E-01   0.00000000000000E+00  -2.12190902988389E-12   2.63036040481304E-08
     -1.96422723138148E-12   2.62995179118691E-08   2.34664480341965E-13   0.00000000000000E+00   0.00000000000000E+00
      0.00000000000000E+00   1.49240829307326E-13  -1.96336241092032E-16   7.66340481588168E-08   7.66341972033099E-08
     -6.22931871641588E-14  -4.50000000000000E+01  -4.50000000000000E+01   0.00000000000000E+00   1.32833761731408E-07
     -6.26337770867436E-15  -2.35767470583209E-07  -1.02933715115179E-07  -1.72371293177807E-13
      3.26659588516170E-09
      8.00000000000000E-01   8.00000000000000E-01   0.00000000000000E+00  -1.26834284526539E-12   2.01055341056814E-08
     -1.75276656947703E-12   2.01025129962666E-08   2.34634736444018E-13   0.00000000000000E+00   0.00000000000000E+00
      0.00000000000000E+00  -8.68015068625707E-13  -1.96249806266549E-16   7.55592367479057E-08   7.55583685365873E-08
     -6.22825367276134E-14  -4.50000000000000E+01  -4.50000000000000E+01   0.00000000000000E+00   1.35357125615175E-07
     -6.26294368199128E-15  -2.31018000885086E-07  -9.56608815328542E-08  -1.72352199716405E-13
      3.48013403547130E-09
      8.00000000000000E-01   8.00000000000000E-01   0.00000000000000E+00  -6.37215744947978E-13   1.49027377099432E-08
     -1.47598042010424E-12   1.49006245137782E-08   2.34590249726514E-13   0.00000000000000E+00   0.00000000000000E+00
      0.00000000000000E+00  -1.60943957841258E-12  -1.96145627545744E-16   7.03696396055587E-08   7.03680299698346E-08
     -6.22672429397674E-14  -4.50000000000000E+01  -4.50000000000000E+01   0.00000000000000E+00   1.37930600111597E-07
     -6.26228002096711E-15  -2.23199248332930E-07  -8.52686544836129E-08  -1.72323006786745E-13
      3.64028764820350E-09
      8.00000000000000E-01   8.00000000000000E-01   0.00000000000000E+00  -4.38440479094148E-13   1.26482394296049E-08
     -1.29657179999222E-12   1.26465044173258E-08   2.34557477392623E-13   0.00000000000000E+00   0.00000000000000E+00
      0.00000000000000E+00  -1.81471657669126E-12  -1.96085699647332E-16   6.51039525003262E-08   6.51021375876638E-08
     -6.22566333455568E-14  -4.50000000000000E+01  -4.50000000000000E+01   0.00000000000000E+00   1.38742400720608E-07
     -6.26177614134368E-15  -2.16491036463822E-07  -7.77486420049898E-08  -1.72300844047066E-13
      3.88051806730179E-09
      8.00000000000000E-01   8.00000000000000E-01   0.00000000000000E+00  -3.07582894899975E-13   1.02954850281648E-08
     -1.06618902562087E-12   1.02941112562443E-08   2.34510008436913E-13   0.00000000000000E+00   0.00000000000000E+00
      0.00000000000000E+00  -1.88347476037726E-12  -1.96018915744697E-16   5.65830102021564E-08   5.65811265313771E-08
     -6.22423884647731E-14  -4.50000000000000E+01  -4.50000000000000E+01   0.00000000000000E+00   1.37583913479805E-07
     -6.26102072173839E-15  -2.04459145006406E-07  -6.68752377876213E-08  -1.72267619972139E-13
      4.06069088162551E-09
      8.00000000000000E-01   8.00000000000000E-01   0.00000000000000E+00  -2.62273425338147E-13   8.92701323358540E-09
     -9.20117974552832E-13   8.92583084218551E-09   2.34476152949103E-13   0.00000000000000E+00   0.00000000000000E+00
      0.00000000000000E+00  -1.83509929826553E-12  -1.95983038400112E-16   5.01812499513737E-08   5.01794146560924E-08
     -6.22330584955349E-14  -4.50000000000000E+01  -4.50000000000000E+01   0.00000000000000E+00   1.34481579305545E-07
     -6.26046304304296E-15  -1.93586818543359E-07  -5.91052454982779E-08  -1.72243094453569E-13
      4.19582049236830E-09
      8.00000000000000E-01   8.00000000000000E-01   0.00000000000000E+00  -2.40433140715632E-13   8.01895768879824E-09
     -8.23625068393633E-13   8.01789363058913E-09   2.34451976325071E-13   0.00000000000000E+00   0.00000000000000E+00