DF-ISE text

Info {
  version   = 1.0
  type      = xyplot
  datasets  = [
    "time"
    "Ntop OuterVoltage" "Ntop InnerVoltage" "Ntop QuasiFermiPotential" "Ntop DisplacementCurrent" "Ntop eCurrent"
    "Ntop hCurrent" "Ntop TotalCurrent" "Ntop Charge" "Ptop OuterVoltage" "Ptop InnerVoltage"
    "Ptop QuasiFermiPotential" "Ptop DisplacementCurrent" "Ptop eCurrent" "Ptop hCurrent" "Ptop TotalCurrent"
    "Ptop Charge" "Pbot OuterVoltage" "Pbot InnerVoltage" "Pbot QuasiFermiPotential" "Pbot DisplacementCurrent"
    "Pbot eCurrent" "Pbot hCurrent" "Pbot TotalCurrent" "Pbot Charge" ]
  functions = [
    Time
    OuterVoltage InnerVoltage QuasiFermiPotential DisplacementCurrent eCurrent
    hCurrent TotalCurrent Charge OuterVoltage InnerVoltage
    QuasiFermiPotential DisplacementCurrent eCurrent hCurrent TotalCurrent
    Charge OuterVoltage InnerVoltage QuasiFermiPotential DisplacementCurrent
    eCurrent hCurrent TotalCurrent Charge ]
}

Data {
      5.00000000000000E-13
      8.00000000000000E-01   8.00000000000000E-01   0.00000000000000E+00   9.59560746483970E-15   7.92219701860575E-12
     -7.31577415293612E-12   6.16018473134468E-13   2.34224766837357E-13   0.00000000000000E+00   0.00000000000000E+00
      0.00000000000000E+00  -1.19716166517222E-13  -1.97157898428201E-16   1.75445406425397E-09   1.75433415092955E-09
     -6.21801123149315E-14  -4.50000000000000E+01  -4.50000000000000E+01   0.00000000000000E+00  -4.35978360594413E-13
      1.45896073602264E-11  -1.76910379840232E-09  -1.75495016940269E-09  -1.72044654522425E-13
      1.25000000000000E-12
      8.00000000000000E-01   8.00000000000000E-01   0.00000000000000E+00   1.11535280967727E-13   3.57816140289978E-11
     -3.37572288614130E-11   2.13592044855256E-12   2.34224766837762E-13   0.00000000000000E+00   0.00000000000000E+00
      0.00000000000000E+00  -2.84384577974693E-14  -1.97157898425678E-16   1.75562731361982E-09   1.75559867800412E-09
     -6.21801123142904E-14  -4.50000000000000E+01  -4.50000000000000E+01   0.00000000000000E+00  -2.49212894964368E-12
      6.73287074290326E-11  -1.82257117693206E-09  -1.75773459845267E-09  -1.72044654523471E-13
      2.37500000000000E-12
      8.00000000000000E-01   8.00000000000000E-01   0.00000000000000E+00   8.48972188507284E-13   2.98457360758227E-10
     -2.79310684765185E-10   1.99956481815493E-11   2.34224766843662E-13   0.00000000000000E+00   0.00000000000000E+00
      0.00000000000000E+00   1.12569444623776E-12  -1.97157898396981E-16   1.76975747855135E-09   1.77088297583969E-09
     -6.21801123046764E-14  -4.50000000000000E+01  -4.50000000000000E+01   0.00000000000000E+00  -2.70173521687120E-11
      5.56950817405940E-10  -2.32081208925847E-09  -1.79087862402124E-09  -1.72044654538985E-13
      4.06250000000000E-12
      8.00000000000000E-01   8.00000000000000E-01   0.00000000000000E+00   1.27433200362015E-11   4.63627204783165E-09
     -4.23720783083160E-09   4.11807537036249E-10   2.34224767016972E-13   0.00000000000000E+00   0.00000000000000E+00
      0.00000000000000E+00   1.63072847251612E-11  -1.97157897737963E-16   2.09651310470008E-09   2.11282019226734E-09
     -6.21801120137023E-14  -4.50000000000000E+01  -4.50000000000000E+01   0.00000000000000E+00  -5.70022261034933E-10
      8.44466276421179E-09  -1.03992682324805E-08  -2.52462772930360E-09  -1.72044655003269E-13
      6.59375000000000E-12
      8.00000000000000E-01   8.00000000000000E-01   0.00000000000000E+00   2.53821919280956E-10   9.65432037277344E-08
     -8.47967088634324E-08   1.20003167835830E-08   2.34224774402465E-13   0.00000000000000E+00   0.00000000000000E+00
      0.00000000000000E+00   3.28975912538846E-10  -1.97157877617609E-16   1.20648050288017E-08   1.23937807441827E-08
     -6.21800992783437E-14  -4.50000000000000E+01  -4.50000000000000E+01   0.00000000000000E+00  -1.67537792144018E-08
      1.68848889420958E-07  -1.76489207734322E-07  -2.43940975277658E-08  -1.72044675124121E-13
      1.03906250000000E-11
      8.00000000000000E-01   8.00000000000000E-01   0.00000000000000E+00   2.12113806280902E-09   8.65602132998829E-07
     -7.05782755346389E-07   1.61940515715249E-07   2.34224930991977E-13   0.00000000000000E+00   0.00000000000000E+00
      0.00000000000000E+00   2.72434823580412E-09  -1.97157612365471E-16   1.43266741243750E-07   1.45991089282397E-07
     -6.21798254207622E-14  -4.50000000000000E+01  -4.50000000000000E+01   0.00000000000000E+00  -2.26393453566157E-07
      1.40296282482999E-06  -1.48450097626148E-06  -3.07931604997646E-07  -1.72045105571214E-13
      1.60859375000000E-11
      8.00000000000000E-01   8.00000000000000E-01   0.00000000000000E+00   1.23855224822382E-09   7.74228691271774E-07
     -3.77679638277937E-07   3.97787605242061E-07   2.34225753144708E-13   0.00000000000000E+00   0.00000000000000E+00
      0.00000000000000E+00   1.27837534049078E-09  -1.97157210425391E-16   3.40869526823648E-07   3.42147901966982E-07
     -6.21784176190782E-14  -4.50000000000000E+01  -4.50000000000000E+01   0.00000000000000E+00  -5.43170362209138E-07
      7.39264966995668E-07  -9.36030111995572E-07  -7.39935507209043E-07  -1.72047335525629E-13
      2.46289062500000E-11
      8.00000000000000E-01   8.00000000000000E-01   0.00000000000000E+00   1.65222099991759E-10   5.29791727818530E-07
     -9.43396442763319E-09   5.20522985490889E-07   2.34227806022226E-13   0.00000000000000E+00   0.00000000000000E+00
      0.00000000000000E+00  -2.03002887249960E-10  -1.97157093464268E-16   3.96209236799774E-07   3.96006233715367E-07
     -6.21752181592409E-14  -4.50000000000000E+01  -4.50000000000000E+01   0.00000000000000E+00  -6.64027522624365E-07
      1.36984473153098E-09  -2.53871541313421E-07  -9.16529219206254E-07  -1.72052587862985E-13
      3.74433593750000E-11
      8.00000000000000E-01   8.00000000000000E-01   0.00000000000000E+00   1.20071472496724E-10   5.70966676982824E-07
     -7.95357449166723E-09   5.63133173963653E-07   2.34231444211630E-13   0.00000000000000E+00   0.00000000000000E+00
      0.00000000000000E+00  -1.53095931461170E-10  -1.97157172217789E-16   3.53887496033340E-07   3.53734399904721E-07
     -6.21704472204567E-14  -4.50000000000000E+01  -4.50000000000000E+01   0.00000000000000E+00  -6.48335417402910E-07
     -6.25621907993877E-15  -2.68532150209244E-07  -9.16867573868374E-07  -1.72060996991173E-13
      5.66650390625000E-11
      8.00000000000000E-01   8.00000000000000E-01   0.00000000000000E+00   8.20011351106394E-11   6.14281237895050E-07
     -6.88778958483678E-09   6.07475449445324E-07   2.34237399444163E-13   0.00000000000000E+00   0.00000000000000E+00
      0.00000000000000E+00  -1.10219200822701E-10  -1.97157259824483E-16   3.06173180449096E-07   3.06062961051116E-07
     -6.21641634168895E-14  -4.50000000000000E+01  -4.50000000000000E+01   0.00000000000000E+00  -6.25332029786904E-07
     -6.25659666803048E-15  -2.88206374452938E-07  -9.13538410496439E-07  -1.72073236027273E-13
      8.54975585937500E-11
      8.00000000000000E-01   8.00000000000000E-01   0.00000000000000E+00   4.90219682193030E-11   6.54832747471147E-07
     -5.54911671022748E-09   6.49332652729139E-07   2.34246975414323E-13   0.00000000000000E+00   0.00000000000000E+00
      0.00000000000000E+00  -7.25085455415262E-11  -1.97157348494648E-16   2.56722983948740E-07   2.56650475206041E-07
     -6.21561490551494E-14  -4.50000000000000E+01  -4.50000000000000E+01   0.00000000000000E+00  -5.95282552092895E-07
     -6.25699503283180E-15  -3.10700569585290E-07  -9.05983127935180E-07  -1.72090826359172E-13
      1.28746337890625E-10
      8.00000000000000E-01   8.00000000000000E-01   0.00000000000000E+00   2.26146017157061E-11   6.85954513407539E-07
     -4.01077446397911E-09   6.81966353545276E-07   2.34261979697487E-13   0.00000000000000E+00   0.00000000000000E+00
      0.00000000000000E+00  -4.20744573357387E-11  -1.97157427327607E-16   2.10395105955746E-07   2.10353031301253E-07
     -6.21462117679328E-14  -4.50000000000000E+01  -4.50000000000000E+01   0.00000000000000E+00  -5.58887512421625E-07
     -6.25756089235770E-15  -3.33431866167347E-07  -8.92319384846533E-07  -1.72115767929553E-13
      1.61182922363281E-10
      8.00000000000000E-01   8.00000000000000E-01   0.00000000000000E+00   1.17805443133296E-11   6.96013993085438E-07
     -3.14737557946671E-09   6.92878398050285E-07   2.34273379621400E-13   0.00000000000000E+00   0.00000000000000E+00
      0.00000000000000E+00  -2.97676076930953E-11  -1.97157460773849E-16   1.88412422301332E-07   1.88382654496481E-07
     -6.21398454940812E-14  -4.50000000000000E+01  -4.50000000000000E+01   0.00000000000000E+00  -5.36860149224702E-07
     -6.25796448971394E-15  -3.44400897064102E-07  -8.81261052546769E-07  -1.72133534127319E-13
      2.09837799072266E-10
      8.00000000000000E-01   8.00000000000000E-01   0.00000000000000E+00   2.65136579379614E-12   7.00470034773267E-07
     -2.18882559899379E-09   6.98283860540067E-07   2.34290358868948E-13   0.00000000000000E+00   0.00000000000000E+00
      0.00000000000000E+00  -1.97533737003428E-11  -1.97157488428622E-16   1.65777342483569E-07   1.65757588912711E-07
     -6.21313833912370E-14  -4.50000000000000E+01  -4.50000000000000E+01   0.00000000000000E+00  -5.09385219152850E-07
     -6.25854286840347E-15  -3.54656224041384E-07  -8.64041449452777E-07  -1.72158975477710E-13
      2.46328956604004E-10
      8.00000000000000E-01   8.00000000000000E-01   0.00000000000000E+00  -8.31058448816084E-13   6.99152002684978E-07
     -1.67084896470857E-09   6.97480322661820E-07   2.34302904760659E-13   0.00000000000000E+00   0.00000000000000E+00
      0.00000000000000E+00  -1.61608753152715E-11  -1.97157498361259E-16   1.53352641882318E-07   1.53336480809846E-07
     -6.21256648172597E-14  -4.50000000000000E+01  -4.50000000000000E+01   0.00000000000000E+00  -4.91816922678122E-07
     -6.25895829586501E-15  -3.58999874534584E-07  -8.50816803471664E-07  -1.72177239943400E-13
      3.01065692901611E-10
      8.00000000000000E-01   8.00000000000000E-01   0.00000000000000E+00  -3.30960522346641E-12   6.94059305103743E-07
     -1.11654258581466E-09   6.92939452912705E-07   2.34321362667421E-13   0.00000000000000E+00   0.00000000000000E+00
      0.00000000000000E+00  -1.38512542900274E-11  -1.97157504864041E-16   1.37794053080377E-07   1.37780201628930E-07
     -6.21178485392683E-14  -4.50000000000000E+01  -4.50000000000000E+01   0.00000000000000E+00  -4.68441340713390E-07
     -6.25955606645053E-15  -3.62278307568688E-07  -8.30719654541634E-07  -1.72203514128153E-13
      3.42118245124817E-10
      8.00000000000000E-01   8.00000000000000E-01   0.00000000000000E+00  -3.91722708818783E-12   6.89288572314951E-07
     -8.29009797936611E-10   6.88455645289926E-07   2.34334933990731E-13   0.00000000000000E+00   0.00000000000000E+00
      0.00000000000000E+00  -1.34804916705142E-11  -1.97157506724560E-16   1.27101768590732E-07   1.27088287901904E-07
     -6.21125186099185E-14  -4.50000000000000E+01  -4.50000000000000E+01   0.00000000000000E+00  -4.52474593284795E-07
     -6.25998616333748E-15  -3.63069333647048E-07  -8.15543933191829E-07  -1.72222415380812E-13
      4.03697073459625E-10
      8.00000000000000E-01   8.00000000000000E-01   0.00000000000000E+00  -3.89764071064093E-12   6.82254047205892E-07
     -5.33110918386875E-10   6.81717038646795E-07   2.34354922823783E-13   0.00000000000000E+00   0.00000000000000E+00
      0.00000000000000E+00  -1.38819529162801E-11  -1.97157509485535E-16   1.11042890808707E-07   1.11029008658633E-07
     -6.21053400399962E-14  -4.50000000000000E+01  -4.50000000000000E+01   0.00000000000000E+00  -4.30003837884065E-07
     -6.26060439047228E-15  -3.62742203160757E-07  -7.92746047305426E-07  -1.72249582783786E-13
      4.49881194710732E-10
      8.00000000000000E-01   8.00000000000000E-01   0.00000000000000E+00  -3.50728376598395E-12   6.77564187287414E-07
     -3.86164133773705E-10   6.77174515869874E-07   2.34369681649169E-13   0.00000000000000E+00   0.00000000000000E+00
      0.00000000000000E+00  -1.45425212776881E-11  -1.97157513470309E-16   9.85102222223124E-08   9.84956795038772E-08
     -6.21006120079545E-14  -4.50000000000000E+01  -4.50000000000000E+01   0.00000000000000E+00  -4.13913511515224E-07
     -6.26104783873140E-15  -3.61756677597480E-07  -7.75670195373752E-07  -1.72269069641213E-13
      5.19157376587391E-10
      8.00000000000000E-01   8.00000000000000E-01   0.00000000000000E+00  -2.72337199651237E-12   6.71878705364412E-07
     -2.40937492312259E-10   6.71635044500103E-07   2.34391567002206E-13   0.00000000000000E+00   0.00000000000000E+00
      0.00000000000000E+00  -1.56762799472105E-11  -1.97157525028044E-16   7.85286213600918E-08   7.85129448829871E-08
     -6.20946362487329E-14  -4.50000000000000E+01  -4.50000000000000E+01   0.00000000000000E+00  -3.90492053497694E-07
     -6.26168182246878E-15  -3.59655929623715E-07  -7.50147989383090E-07  -1.72296930753475E-13
      5.71114512994885E-10
      8.00000000000000E-01   8.00000000000000E-01   0.00000000000000E+00  -2.10356031502835E-12   6.68714754973454E-07
     -1.71954088697811E-10   6.68540697324441E-07   2.34407855889920E-13   0.00000000000000E+00   0.00000000000000E+00
      0.00000000000000E+00  -1.65022776548987E-11  -1.97157539017468E-16   6.25718816191211E-08   6.25553791443086E-08
     -6.20910834337028E-14  -4.50000000000000E+01  -4.50000000000000E+01   0.00000000000000E+00  -3.73300338555636E-07
     -6.26213328962165E-15  -3.57795731650981E-07  -7.31096076468750E-07  -1.72316772456217E-13
      6.49050217606127E-10
      8.00000000000000E-01   8.00000000000000E-01   0.00000000000000E+00  -1.25160144712513E-12   6.65597578064232E-07
     -1.06379360933628E-10   6.65489947101851E-07   2.34432225330359E-13   0.00000000000000E+00   0.00000000000000E+00
      0.00000000000000E+00  -1.75956847341193E-11  -1.97157569536558E-16   3.72045580945194E-08   3.71869622126278E-08
     -6.20873510039101E-14  -4.50000000000000E+01  -4.50000000000000E+01   0.00000000000000E+00  -3.47886090872012E-07
     -6.26277264125231E-15  -3.54790812179697E-07  -7.02676909314481E-07  -1.72344874326448E-13
      7.07501996064559E-10
      8.00000000000000E-01   8.00000000000000E-01   0.00000000000000E+00  -7.06460392438831E-13   6.64381780425024E-07
     -7.64703167658143E-11   6.64304603647866E-07   2.34450528092250E-13   0.00000000000000E+00   0.00000000000000E+00
      0.00000000000000E+00  -1.82678316267167E-11  -1.97157600047313E-16   1.72029694971582E-08   1.71847014683739E-08
     -6.20858703698056E-14  -4.50000000000000E+01  -4.50000000000000E+01   0.00000000000000E+00  -3.29040118144134E-07
     -6.26322268896653E-15  -3.52449180708881E-07  -6.81489305116238E-07  -1.72364657722444E-13
      7.95179663752206E-10
      8.00000000000000E-01   8.00000000000000E-01   0.00000000000000E+00  -6.56404992631523E-14   6.63975705923026E-07
     -4.88904125186103E-11   6.63926749870008E-07   2.34478153393140E-13   0.00000000000000E+00   0.00000000000000E+00
      0.00000000000000E+00  -1.90300444287816E-11  -1.97157656922992E-16  -1.40012510428954E-08  -1.40202812844818E-08
     -6.20858754886151E-14  -4.50000000000000E+01  -4.50000000000000E+01   0.00000000000000E+00  -3.01021912413840E-07
     -6.26385094178340E-15  -3.48884549907834E-07  -6.49906468585526E-07  -1.72392277904524E-13
      9.26696165283676E-10
      8.00000000000000E-01   8.00000000000000E-01   0.00000000000000E+00   4.77436778742862E-13   6.65498000840908E-07
     -2.81684272909420E-11   6.65470309850396E-07   2.34520211664396E-13   0.00000000000000E+00   0.00000000000000E+00
      0.00000000000000E+00  -1.95977116133234E-11  -1.97157753683772E-16  -6.24935041250682E-08  -6.25131020338393E-08
     -6.20910811003195E-14  -4.50000000000000E+01  -4.50000000000000E+01   0.00000000000000E+00  -2.59446315360118E-07
     -6.26468906533770E-15  -3.43510886191750E-07  -6.02957207816557E-07  -1.72429130564076E-13
      1.02533354143228E-09
      8.00000000000000E-01   8.00000000000000E-01   0.00000000000000E+00   5.20506191064066E-13   6.67395783492323E-07
     -2.06742490741249E-11   6.67375629749440E-07   2.34552359155810E-13   0.00000000000000E+00   0.00000000000000E+00
      0.00000000000000E+00  -1.95269987056608E-11  -1.97157806750034E-16  -9.92909831721575E-08  -9.93105103680209E-08
     -6.20991611190577E-14  -4.50000000000000E+01  -4.50000000000000E+01   0.00000000000000E+00  -2.28574007165396E-07
     -6.26523634169747E-15  -3.39491105950786E-07  -5.68065119381419E-07  -1.72453198036752E-13
      1.17328960565518E-09
      8.00000000000000E-01   8.00000000000000E-01   0.00000000000000E+00  -2.05350893648936E-13   6.69072613449153E-07
     -1.45722912989608E-11   6.69057835806960E-07   2.34601543855422E-13   0.00000000000000E+00   0.00000000000000E+00
      0.00000000000000E+00  -1.83487926766088E-11  -1.97157685595531E-16  -1.52806759567818E-07  -1.52825108557652E-07
     -6.21179217308751E-14  -4.50000000000000E+01  -4.50000000000000E+01   0.00000000000000E+00  -1.82733435168346E-07
     -6.26592808198633E-15  -3.33499285815036E-07  -5.16232727249309E-07  -1.72483622124549E-13
      1.28425665382236E-09
      8.00000000000000E-01   8.00000000000000E-01   0.00000000000000E+00  -1.58385473641212E-12   6.67262319245167E-07
     -1.19995222035645E-11   6.67248735868227E-07   2.34638960861779E-13   0.00000000000000E+00   0.00000000000000E+00
      0.00000000000000E+00  -1.62986286444472E-11  -1.97157171413286E-16  -1.89445805592794E-07  -1.89462104418595E-07
     -6.21369486871292E-14  -4.50000000000000E+01  -4.50000000000000E+01   0.00000000000000E+00  -1.48749392841736E-07
     -6.26634617578500E-15  -3.29037232341550E-07  -4.77786631449633E-07  -1.72502012174651E-13
      1.36748193994775E-09
      8.00000000000000E-01   8.00000000000000E-01   0.00000000000000E+00  -3.24716553346320E-12   6.62603585090369E-07
     -1.06135198794080E-11   6.62589724404956E-07   2.34667050559308E-13   0.00000000000000E+00   0.00000000000000E+00
      0.00000000000000E+00  -1.39015939662975E-11  -1.97156270431314E-16  -2.13337571721007E-07  -2.13351473512129E-07
     -6.21537091033590E-14  -4.50000000000000E+01  -4.50000000000000E+01   0.00000000000000E+00  -1.23529092721128E-07
     -6.26660373994234E-15  -3.25709151905095E-07  -4.49238250892826E-07  -1.72513341455948E-13
      1.49231986913582E-09
      8.00000000000000E-01   8.00000000000000E-01   0.00000000000000E+00  -6.79933846829836E-12   6.47328598502171E-07
     -9.03190889587122E-12   6.47312767254807E-07   2.34708465893829E-13   0.00000000000000E+00   0.00000000000000E+00
      0.00000000000000E+00  -8.75389588280728E-12  -1.97153284537521E-16  -2.40257389037895E-07  -2.40266143130931E-07
     -6.21820318406502E-14  -4.50000000000000E+01  -4.50000000000000E+01   0.00000000000000E+00  -8.62993059109000E-08
     -6.26690140469582E-15  -3.20747311946074E-07  -4.07046624123875E-07  -1.72526434053180E-13
      1.58594831602688E-09
      8.00000000000000E-01   8.00000000000000E-01   0.00000000000000E+00  -1.02116541156410E-11   6.27402577488853E-07
     -8.10602687350163E-12   6.27384259807864E-07   2.34738248369413E-13   0.00000000000000E+00   0.00000000000000E+00
      0.00000000000000E+00  -3.75352874545910E-12  -1.97148937510765E-16  -2.51283860783538E-07  -2.51287614509432E-07
     -6.22050130012213E-14  -4.50000000000000E+01  -4.50000000000000E+01   0.00000000000000E+00  -5.90462838240387E-08
     -6.26705605988700E-15  -3.17050355207336E-07  -3.76096645298431E-07  -1.72533235368192E-13
      1.72639098636346E-09
      8.00000000000000E-01   8.00000000000000E-01   0.00000000000000E+00  -1.58827682688971E-11   5.81065279211555E-07
     -6.97921377773145E-12   5.81042417229509E-07   2.34778967815462E-13   0.00000000000000E+00   0.00000000000000E+00
      0.00000000000000E+00   4.81275940225530E-12  -1.97136543458292E-16  -2.49621712127433E-07  -2.49616899565167E-07
     -6.22402054522810E-14  -4.50000000000000E+01  -4.50000000000000E+01   0.00000000000000E+00  -1.98787264755554E-08
     -6.26718180966701E-15  -3.11546784921604E-07  -3.31425517664341E-07  -1.72538762363181E-13
      1.83172298911590E-09
      8.00000000000000E-01   8.00000000000000E-01   0.00000000000000E+00  -1.98928983500788E-11   5.33145639917850E-07
     -6.28397918740616E-12   5.33119463040313E-07   2.34804999874676E-13   0.00000000000000E+00   0.00000000000000E+00
      0.00000000000000E+00   1.12094179463775E-11  -1.97120479605294E-16  -2.33273027359724E-07  -2.33261818138898E-07
     -6.22655996828516E-14  -4.50000000000000E+01  -4.50000000000000E+01   0.00000000000000E+00   7.59671889792227E-09
     -6.26719642673501E-15  -3.07454357532139E-07  -2.99857644901413E-07  -1.72539400191825E-13
      1.98972099324456E-09
      8.00000000000000E-01   8.00000000000000E-01   0.00000000000000E+00  -2.40043047817919E-11   4.44421022918120E-07
     -5.41076953053778E-12   4.44391607843808E-07   2.34834107759288E-13   0.00000000000000E+00   0.00000000000000E+00
      0.00000000000000E+00   1.87126325740714E-11  -1.97080397417202E-16  -1.87534912329206E-07  -1.87516199893713E-07
     -6.22988631904418E-14  -4.50000000000000E+01  -4.50000000000000E+01   0.00000000000000E+00   4.45040014530567E-08
     -6.26710219248380E-15  -3.01379403136050E-07  -2.56875407950095E-07  -1.72535244568848E-13
      2.10821949634105E-09
      8.00000000000000E-01   8.00000000000000E-01   0.00000000000000E+00  -2.49132861199620E-11   3.70373269470622E-07
     -4.86097025199524E-12   3.70343495214250E-07   2.34846880718362E-13   0.00000000000000E+00   0.00000000000000E+00
      0.00000000000000E+00   2.16816328962693E-11  -1.97034617033305E-16  -1.41586570473756E-07  -1.41564889037894E-07
     -6.23183273063265E-14  -4.50000000000000E+01  -4.50000000000000E+01   0.00000000000000E+00   6.81004852531890E-08
     -6.26695029744171E-15  -2.96879085162596E-07  -2.28778606176357E-07  -1.72528553412036E-13
      2.28596725098579E-09
      8.00000000000000E-01   8.00000000000000E-01   0.00000000000000E+00  -2.26655437652946E-11   2.61953930081394E-07
     -4.16414800493871E-12   2.61927100389623E-07   2.34850772411950E-13   0.00000000000000E+00   0.00000000000000E+00
      0.00000000000000E+00   2.13610876094401E-11  -1.96936986190059E-16  -6.79473335523210E-08  -6.79259726616485E-08
     -6.23368902088428E-14  -4.50000000000000E+01  -4.50000000000000E+01   0.00000000000000E+00   9.62315863876678E-08
     -6.26661713515586E-15  -2.90232707849026E-07  -1.94001127727975E-07  -1.72513882203106E-13
      2.41927806696935E-09
      8.00000000000000E-01   8.00000000000000E-01   0.00000000000000E+00  -1.89219131858809E-11   1.91164801463251E-07
     -3.72288479688080E-12   1.91142156665268E-07   2.34842560169105E-13   0.00000000000000E+00   0.00000000000000E+00
      0.00000000000000E+00   1.81751997840983E-11  -1.96841831035990E-16  -1.76316723144052E-08  -1.76134973114629E-08
     -6.23425701374838E-14  -4.50000000000000E+01  -4.50000000000000E+01   0.00000000000000E+00   1.11809920191235E-07
     -6.26630160158712E-15  -2.85338573278739E-07  -1.73528659353805E-07  -1.72499990031622E-13
      2.61924429094468E-09
      8.00000000000000E-01   8.00000000000000E-01   0.00000000000000E+00  -1.24006568159788E-11   1.11336921585271E-07
     -3.16056344015662E-12   1.11321360365014E-07   2.34816297777152E-13   0.00000000000000E+00   0.00000000000000E+00
      0.00000000000000E+00   1.15442673345276E-11  -1.96673776767570E-16   3.88913961955798E-08   3.89029402662406E-08
     -6.23403406140916E-14  -4.50000000000000E+01  -4.50000000000000E+01   0.00000000000000E+00   1.27925285152776E-07
     -6.26575565774275E-15  -2.78149579518276E-07  -1.50224300631255E-07  -1.72475957163061E-13
      2.76921895892618E-09
      8.00000000000000E-01   8.00000000000000E-01   0.00000000000000E+00  -8.07911487294449E-12   7.22192482547174E-08
     -2.80186557975525E-12   7.22083672742647E-08   2.34788775422111E-13   0.00000000000000E+00   0.00000000000000E+00
      0.00000000000000E+00   6.80978093723546E-12  -1.96538419441507E-16   6.48678716821008E-08   6.48746812664996E-08
     -6.23326102407520E-14  -4.50000000000000E+01  -4.50000000000000E+01   0.00000000000000E+00   1.35779303953370E-07
     -6.26530599006150E-15  -2.72862346228828E-07  -1.37083048540764E-07  -1.72456165181360E-13
      2.88169995991231E-09
      8.00000000000000E-01   8.00000000000000E-01   0.00000000000000E+00  -5.60601590564983E-12   5.25479693182382E-08
     -2.56147636104162E-12   5.25398018259715E-08   2.34765410149397E-13   0.00000000000000E+00   0.00000000000000E+00
      0.00000000000000E+00   3.97256537601139E-12  -1.96438229960288E-16   7.62809203708177E-08   7.62848927397555E-08
     -6.23247658695366E-14  -4.50000000000000E+01  -4.50000000000000E+01   0.00000000000000E+00   1.40106573442224E-07
     -6.26495332649273E-15  -2.68931261742998E-07  -1.28824694565727E-07  -1.72440644279862E-13
      2.92388033528210E-09
      8.00000000000000E-01   8.00000000000000E-01   0.00000000000000E+00  -4.84507643202557E-12   4.68888535028165E-08
     -2.47692174405512E-12   4.68815315046404E-08   2.34756242661907E-13   0.00000000000000E+00   0.00000000000000E+00
      0.00000000000000E+00   3.09678919413882E-12  -1.96401796936741E-16   7.90945727335481E-08   7.90976693263405E-08
     -6.23215372863871E-14  -4.50000000000000E+01  -4.50000000000000E+01   0.00000000000000E+00   1.41479342458440E-07
     -6.26481837639800E-15  -2.67458537024603E-07  -1.25979200830981E-07  -1.72434705375519E-13
      2.93969797604578E-09
      8.00000000000000E-01   8.00000000000000E-01   0.00000000000000E+00  -4.58172135763356E-12   4.49710530894874E-08
     -2.44594711751668E-12   4.49640254210122E-08   2.34752761866081E-13   0.00000000000000E+00   0.00000000000000E+00
      0.00000000000000E+00   2.79260243350056E-12  -1.96388356399739E-16   7.99733578768030E-08   7.99761502828481E-08
     -6.23202982154762E-14  -4.50000000000000E+01  -4.50000000000000E+01   0.00000000000000E+00   1.41965586087600E-07
     -6.26476743654783E-15  -2.66905755526693E-07  -1.24940175703860E-07  -1.72432463650604E-13
      2.94562959133215E-09
      8.00000000000000E-01   8.00000000000000E-01   0.00000000000000E+00  -4.47921604730114E-12   4.42787354022977E-08
     -2.43443227910810E-12   4.42718217539713E-08   2.34751451162643E-13   0.00000000000000E+00   0.00000000000000E+00
      0.00000000000000E+00   2.70665992845988E-12  -1.96383350158276E-16   8.02796264122829E-08   8.02823328758280E-08
     -6.23198301275258E-14  -4.50000000000000E+01  -4.50000000000000E+01   0.00000000000000E+00   1.42144197794467E-07
     -6.26474828923076E-15  -2.66698346159518E-07  -1.24554154629799E-07  -1.72431621035119E-13
      2.95452701426172E-09
      8.00000000000000E-01   8.00000000000000E-01   0.00000000000000E+00  -4.35037506851081E-12   4.32668087305644E-08
     -2.41726175264050E-12   4.32600410937432E-08   2.34749479884687E-13   0.00000000000000E+00   0.00000000000000E+00
      0.00000000000000E+00   2.52937032216611E-12  -1.96375876817726E-16   8.07160811434596E-08   8.07186103174059E-08
     -6.23191247438443E-14  -4.50000000000000E+01  -4.50000000000000E+01   0.00000000000000E+00   1.42408443708772E-07
     -6.26471952332426E-15  -2.66387088855202E-07  -1.23978651411149E-07  -1.72430355140843E-13
      2.96787314865607E-09
      8.00000000000000E-01   8.00000000000000E-01   0.00000000000000E+00  -4.14853895386206E-12   4.18069063571827E-08
     -2.39173263115538E-12   4.18003660855977E-08   2.34746511774464E-13   0.00000000000000E+00   0.00000000000000E+00
      0.00000000000000E+00   2.28227618119127E-12  -1.96364750180967E-16   8.13204194991823E-08   8.13227015789987E-08
     -6.23180598326001E-14  -4.50000000000000E+01  -4.50000000000000E+01   0.00000000000000E+00   1.42796771117718E-07
     -6.26467627512649E-15  -2.65919832517638E-07  -1.23123067664597E-07  -1.72428451941863E-13
      2.98789235024760E-09
      8.00000000000000E-01   8.00000000000000E-01   0.00000000000000E+00  -3.86122083791190E-12   3.97418467204949E-08
     -2.35394162929489E-12   3.97356315580276E-08   2.34742036238472E-13   0.00000000000000E+00   0.00000000000000E+00
      0.00000000000000E+00   1.95879171432213E-12  -1.96348255251642E-16   8.21184249461929E-08   8.21203835415589E-08
     -6.23164486484172E-14  -4.50000000000000E+01  -4.50000000000000E+01   0.00000000000000E+00   1.43361937588992E-07
     -6.26461118502823E-15  -2.65217946423967E-07  -1.21856015099587E-07  -1.72425587590055E-13
      3.01792115263488E-09
      8.00000000000000E-01   8.00000000000000E-01   0.00000000000000E+00  -3.46380869300465E-12   3.69064992305888E-08
     -2.29836236619971E-12   3.69007370595296E-08   2.34735276134845E-13   0.00000000000000E+00   0.00000000000000E+00
      0.00000000000000E+00   1.48248469567480E-12  -1.96323974663231E-16   8.30869981346152E-08   8.30884804229869E-08
     -6.23140057650007E-14  -4.50000000000000E+01  -4.50000000000000E+01   0.00000000000000E+00   1.44173053978946E-07
     -6.26451307806709E-15  -2.64162265196949E-07  -1.19989217482516E-07  -1.72421270369844E-13
      3.06296435621581E-09
      8.00000000000000E-01   8.00000000000000E-01   0.00000000000000E+00  -2.94244727177833E-12   3.31844825340907E-08
     -2.21740884741871E-12   3.31793226779714E-08   2.34725048578885E-13   0.00000000000000E+00   0.00000000000000E+00
      0.00000000000000E+00   8.68508441516527E-13  -1.96288659944114E-16   8.40758330679307E-08   8.40767013800835E-08
     -6.23102980905471E-14  -4.50000000000000E+01  -4.50000000000000E+01   0.00000000000000E+00   1.45314131704674E-07
     -6.26436491302952E-15  -2.62570149498363E-07  -1.17256024058055E-07  -1.72414750488338E-13
      3.13052916158721E-09
      8.00000000000000E-01   8.00000000000000E-01   0.00000000000000E+00  -2.29819142896660E-12   2.86155721346233E-08
     -2.10117689481225E-12   2.86111727662995E-08   2.34709563506136E-13   0.00000000000000E+00   0.00000000000000E+00