DF-ISE text

Info {
  version   = 1.0
  type      = xyplot
  datasets  = [
    "time"
    "Ntop OuterVoltage" "Ntop InnerVoltage" "Ntop QuasiFermiPotential" "Ntop DisplacementCurrent" "Ntop eCurrent"
    "Ntop hCurrent" "Ntop TotalCurrent" "Ntop Charge" "Ptop OuterVoltage" "Ptop InnerVoltage"
    "Ptop QuasiFermiPotential" "Ptop DisplacementCurrent" "Ptop eCurrent" "Ptop hCurrent" "Ptop TotalCurrent"
    "Ptop Charge" "Pbot OuterVoltage" "Pbot InnerVoltage" "Pbot QuasiFermiPotential" "Pbot DisplacementCurrent"
    "Pbot eCurrent" "Pbot hCurrent" "Pbot TotalCurrent" "Pbot Charge" ]
  functions = [
    Time
    OuterVoltage InnerVoltage QuasiFermiPotential DisplacementCurrent eCurrent
    hCurrent TotalCurrent Charge OuterVoltage InnerVoltage
    QuasiFermiPotential DisplacementCurrent eCurrent hCurrent TotalCurrent
    Charge OuterVoltage InnerVoltage QuasiFermiPotential DisplacementCurrent
    eCurrent hCurrent TotalCurrent Charge ]
}

Data {
      5.00000000000000E-13
      8.00000000000000E-01   8.00000000000000E-01   0.00000000000000E+00   1.00341844194491E-14   7.45689975043125E-12
     -6.86996789901894E-12   5.96966035831768E-13   2.34224766837354E-13   0.00000000000000E+00   0.00000000000000E+00
      0.00000000000000E+00  -1.21443507604033E-13  -1.97157898428231E-16   1.75443966751369E-09   1.75431802684818E-09
     -6.21801123149368E-14  -4.50000000000000E+01  -4.50000000000000E+01   0.00000000000000E+00  -4.10006455941563E-13
      1.37001719397915E-11  -1.76820515836787E-09  -1.75491499288402E-09  -1.72044654522417E-13
      1.25000000000000E-12
      8.00000000000000E-01   8.00000000000000E-01   0.00000000000000E+00   1.05545882316199E-13   3.36188475405409E-11
     -3.17001464611725E-11   2.02424696168465E-12   2.34224766837734E-13   0.00000000000000E+00   0.00000000000000E+00
      0.00000000000000E+00  -3.52353149336329E-14  -1.97157898425852E-16   1.75554093275015E-09   1.75550550027732E-09
     -6.21801123143348E-14  -4.50000000000000E+01  -4.50000000000000E+01   0.00000000000000E+00  -2.34086174861795E-12
      6.32254830981547E-11  -1.81841436858855E-09  -1.75752974723901E-09  -1.72044654523399E-13
      2.37500000000000E-12
      8.00000000000000E-01   8.00000000000000E-01   0.00000000000000E+00   7.98363300959374E-13   2.80290133668857E-10
     -2.62290188645912E-10   1.87983083239035E-11   2.34224766843275E-13   0.00000000000000E+00   0.00000000000000E+00
      0.00000000000000E+00   1.05890944890137E-12  -1.97157898398913E-16   1.76879756573051E-09   1.76985627802151E-09
     -6.21801123053072E-14  -4.50000000000000E+01  -4.50000000000000E+01   0.00000000000000E+00  -2.53721064660788E-11
      5.23011245748344E-10  -2.28629372562768E-09  -1.78865458634542E-09  -1.72044654537968E-13
      4.06250000000000E-12
      8.00000000000000E-01   8.00000000000000E-01   0.00000000000000E+00   1.19676800201462E-11   4.35379999717217E-09
     -3.97900297744904E-09   3.86764699743272E-10   2.34224767006052E-13   0.00000000000000E+00   0.00000000000000E+00
      0.00000000000000E+00   1.53119228801706E-11  -1.97157897780078E-16   2.07561794508367E-09   2.09092967080595E-09
     -6.21801120320895E-14  -4.50000000000000E+01  -4.50000000000000E+01   0.00000000000000E+00  -5.35291173291441E-10
      7.93006574579570E-09  -9.87246894305347E-09  -2.47769437054922E-09  -1.72044654973964E-13
      6.59375000000000E-12
      8.00000000000000E-01   8.00000000000000E-01   0.00000000000000E+00   2.38373851908578E-10   9.06609219915872E-08
     -7.96294094758338E-08   1.12698863676620E-08   2.34224773942492E-13   0.00000000000000E+00   0.00000000000000E+00
      0.00000000000000E+00   3.08909668857733E-10  -1.97157878887121E-16   1.14358013693045E-08   1.17447108410043E-08
     -6.21801000736503E-14  -4.50000000000000E+01  -4.50000000000000E+01   0.00000000000000E+00  -1.57329618420033E-08
      1.58559659840646E-07  -1.65841295207309E-07  -2.30145972086662E-08  -1.72044673868842E-13
      1.03906250000000E-11
      8.00000000000000E-01   8.00000000000000E-01   0.00000000000000E+00   1.99198470879091E-09   8.12863019445836E-07
     -6.62774127875405E-07   1.52080876279222E-07   2.34224921010102E-13   0.00000000000000E+00   0.00000000000000E+00
      0.00000000000000E+00   2.55821201084871E-09  -1.97157629812327E-16   1.34635891938406E-07   1.37194103752097E-07
     -6.21798429193833E-14  -4.50000000000000E+01  -4.50000000000000E+01   0.00000000000000E+00  -2.12600814428873E-07
      1.31746977731069E-06  -1.39414394291313E-06  -2.89274980031318E-07  -1.72045078090719E-13
      1.60859375000000E-11
      8.00000000000000E-01   8.00000000000000E-01   0.00000000000000E+00   1.16290373549382E-09   7.27052615624479E-07
     -3.54664802406533E-07   3.73550716953440E-07   2.34225693183715E-13   0.00000000000000E+00   0.00000000000000E+00
      0.00000000000000E+00   1.20066436488408E-09  -1.97157252355918E-16   3.20201938173708E-07   3.21402602341435E-07
     -6.21785209420575E-14  -4.50000000000000E+01  -4.50000000000000E+01   0.00000000000000E+00  -5.10099939280402E-07
      6.94216007688145E-07  -8.79069387702619E-07  -6.94953319294876E-07  -1.72047172241660E-13
      2.46289062500000E-11
      8.00000000000000E-01   8.00000000000000E-01   0.00000000000000E+00   1.54937220856657E-10   4.97468963675783E-07
     -8.85898605835048E-09   4.88764914838289E-07   2.34227621314534E-13   0.00000000000000E+00   0.00000000000000E+00
      0.00000000000000E+00  -1.90380231982731E-10  -1.97157142441139E-16   3.72209234728164E-07   3.72018854299024E-07
     -6.21755163009510E-14  -4.50000000000000E+01  -4.50000000000000E+01   0.00000000000000E+00  -6.23649913616273E-07
      1.28636943698134E-09  -2.38420224958020E-07  -8.60783769137311E-07  -1.72052105013583E-13
      3.74433593750000E-11
      8.00000000000000E-01   8.00000000000000E-01   0.00000000000000E+00   1.12674437486713E-10   5.36096214491437E-07
     -7.46860358336692E-09   5.28740285345557E-07   2.34231038512968E-13   0.00000000000000E+00   0.00000000000000E+00
      0.00000000000000E+00  -1.43671381740448E-10  -1.97157216317079E-16   3.32504992523532E-07   3.32361320944634E-07
     -6.21710353501009E-14  -4.50000000000000E+01  -4.50000000000000E+01   0.00000000000000E+00  -6.08964715869876E-07
     -6.25620279737765E-15  -2.52136884164114E-07  -8.61101606290193E-07  -1.72060003162868E-13
      5.66650390625000E-11
      8.00000000000000E-01   8.00000000000000E-01   0.00000000000000E+00   7.70011587721054E-11   5.76755532019637E-07
     -6.46756113189281E-09   5.70364972046517E-07   2.34236632154008E-13   0.00000000000000E+00   0.00000000000000E+00
      0.00000000000000E+00  -1.03498046952993E-10  -1.97157298548325E-16   2.87716133693007E-07   2.87612635448897E-07
     -6.21651328135493E-14  -4.50000000000000E+01  -4.50000000000000E+01   0.00000000000000E+00  -5.87393341932195E-07
     -6.25655754558488E-15  -2.70584259306658E-07  -8.57977607495411E-07  -1.72071499340459E-13
      8.54975585937500E-11
      8.00000000000000E-01   8.00000000000000E-01   0.00000000000000E+00   4.60706840419637E-11   6.14851553233252E-07
     -5.21032323357540E-09   6.09687300683719E-07   2.34245626936100E-13   0.00000000000000E+00   0.00000000000000E+00
      0.00000000000000E+00  -6.81309182752623E-11  -1.97157381837834E-16   2.41267657455428E-07   2.41199526339995E-07
     -6.21576042759930E-14  -4.50000000000000E+01  -4.50000000000000E+01   0.00000000000000E+00  -5.59177566920397E-07
     -6.25693186641377E-15  -2.91709253846387E-07  -8.50886827023716E-07  -1.72088022660108E-13
      1.28746337890625E-10
      8.00000000000000E-01   8.00000000000000E-01   0.00000000000000E+00   2.12683079418084E-11   6.44113270768933E-07
     -3.76571586453851E-09   6.40368823212337E-07   2.34259720912628E-13   0.00000000000000E+00   0.00000000000000E+00
      0.00000000000000E+00  -3.95449529009938E-11  -1.97157455929206E-16   1.97731483711649E-07   1.97691938561591E-07
     -6.21482696992627E-14  -4.50000000000000E+01  -4.50000000000000E+01   0.00000000000000E+00  -5.24976511423199E-07
     -6.25746351514765E-15  -3.13084244093267E-07  -8.38060761773929E-07  -1.72111451213366E-13
      1.61182922363281E-10
      8.00000000000000E-01   8.00000000000000E-01   0.00000000000000E+00   1.10814377287198E-11   6.53578383268642E-07
     -2.95499817765234E-09   6.50634466528718E-07   2.34270429172470E-13   0.00000000000000E+00   0.00000000000000E+00
      0.00000000000000E+00  -2.79722149283400E-11  -1.97157487368637E-16   1.77072371621125E-07   1.77044399209040E-07
     -6.21422900085833E-14  -4.50000000000000E+01  -4.50000000000000E+01   0.00000000000000E+00  -5.04269163591407E-07
     -6.25784267173290E-15  -3.23409695888509E-07  -8.27678865737758E-07  -1.72128139163887E-13
      2.09837799072266E-10
      8.00000000000000E-01   8.00000000000000E-01   0.00000000000000E+00   2.49124981005473E-12   6.57772507554165E-07
     -2.05499055584284E-09   6.55720008248132E-07   2.34286377558532E-13   0.00000000000000E+00   0.00000000000000E+00
      0.00000000000000E+00  -1.85488924854602E-11  -1.97157513351577E-16   1.55809157008568E-07   1.55790607918925E-07
     -6.21343421079222E-14  -4.50000000000000E+01  -4.50000000000000E+01   0.00000000000000E+00  -4.78437621975820E-07
     -6.25838598000527E-15  -3.33072987932852E-07  -8.11510616167058E-07  -1.72152035450611E-13
      2.46328956604004E-10
      8.00000000000000E-01   8.00000000000000E-01   0.00000000000000E+00  -7.88734096307706E-13   6.56530400459412E-07
     -1.56867427529440E-09   6.54960937450021E-07   2.34298160901988E-13   0.00000000000000E+00   0.00000000000000E+00
      0.00000000000000E+00  -1.51643663727805E-11  -1.97157522667786E-16   1.44146493912709E-07   1.44131329349179E-07
     -6.21289709439041E-14  -4.50000000000000E+01  -4.50000000000000E+01   0.00000000000000E+00  -4.61920286081626E-07
     -6.25877618974177E-15  -3.37171974458797E-07  -7.99092266799200E-07  -1.72169189958084E-13
      3.01065692901611E-10
      8.00000000000000E-01   8.00000000000000E-01   0.00000000000000E+00  -3.12279430185465E-12   6.51730649440810E-07
     -1.04826799317322E-09   6.50679258653335E-07   2.34315495209712E-13   0.00000000000000E+00   0.00000000000000E+00
      0.00000000000000E+00  -1.29873402961600E-11  -1.97157528738457E-16   1.29552992799424E-07   1.29540005261971E-07
     -6.21216287740554E-14  -4.50000000000000E+01  -4.50000000000000E+01   0.00000000000000E+00  -4.39946225727557E-07
     -6.25933764282787E-15  -3.40273031928409E-07  -7.80219263915304E-07  -1.72193866435657E-13
      3.42118245124817E-10
      8.00000000000000E-01   8.00000000000000E-01   0.00000000000000E+00  -3.69533207420600E-12   6.47233324115122E-07
     -7.78328922723920E-10   6.46451299860324E-07   2.34328238994647E-13   0.00000000000000E+00   0.00000000000000E+00
      0.00000000000000E+00  -1.26372600189444E-11  -1.97157530451587E-16   1.19528675561078E-07   1.19516038103901E-07
     -6.21166212941638E-14  -4.50000000000000E+01  -4.50000000000000E+01   0.00000000000000E+00  -4.24939729763270E-07
     -6.25974159128191E-15  -3.41027601941217E-07  -7.65967337964228E-07  -1.72211617700484E-13
      4.03697073459625E-10
      8.00000000000000E-01   8.00000000000000E-01   0.00000000000000E+00  -3.67584248356395E-12   6.40601073258568E-07
     -5.00542706159022E-10   6.40096854709925E-07   2.34347006870949E-13   0.00000000000000E+00   0.00000000000000E+00
      0.00000000000000E+00  -1.30160309614599E-11  -1.97157532993362E-16   1.04472969819073E-07   1.04459953590954E-07
     -6.21098753867805E-14  -4.50000000000000E+01  -4.50000000000000E+01   0.00000000000000E+00  -4.03824670811700E-07
     -6.26032221417663E-15  -3.40732131228857E-07  -7.44556808300880E-07  -1.72237131484169E-13
      4.49881194710732E-10
      8.00000000000000E-01   8.00000000000000E-01   0.00000000000000E+00  -3.30677133726674E-12   6.36179357938974E-07
     -3.62594515832534E-10   6.35813456651804E-07   2.34360862757494E-13   0.00000000000000E+00   0.00000000000000E+00
      0.00000000000000E+00  -1.36394712494138E-11  -1.97157536701163E-16   9.27201769260685E-08   9.27065372576615E-08
     -6.21054309457119E-14  -4.50000000000000E+01  -4.50000000000000E+01   0.00000000000000E+00  -3.88707816386260E-07
     -6.26073867963445E-15  -3.39812171262469E-07  -7.28519993909468E-07  -1.72255431811781E-13
      5.19157376587391E-10
      8.00000000000000E-01   8.00000000000000E-01   0.00000000000000E+00  -2.56601965634607E-12   6.30820138003916E-07
     -2.26264654717730E-10   6.30591307329542E-07   2.34381407424149E-13   0.00000000000000E+00   0.00000000000000E+00
      0.00000000000000E+00  -1.47105049755078E-11  -1.97157547513488E-16   7.39743187930941E-08   7.39596080909610E-08
     -6.20998113548405E-14  -4.50000000000000E+01  -4.50000000000000E+01   0.00000000000000E+00  -3.66706470637560E-07
     -6.26133407835973E-15  -3.37844438521608E-07  -7.04550915420503E-07  -1.72281596069309E-13
      5.71114512994885E-10
      8.00000000000000E-01   8.00000000000000E-01   0.00000000000000E+00  -1.98014810289229E-12   6.27839422202346E-07
     -1.61509420344218E-10   6.27675932633899E-07   2.34396697480725E-13   0.00000000000000E+00   0.00000000000000E+00
      0.00000000000000E+00  -1.54905530116596E-11  -1.97157560627668E-16   5.89981731480559E-08   5.89826823978867E-08
     -6.20964683842155E-14  -4.50000000000000E+01  -4.50000000000000E+01   0.00000000000000E+00  -3.50558915477947E-07
     -6.26175806470943E-15  -3.36099693292081E-07  -6.86658615031786E-07  -1.72300229096509E-13
      6.49050217606127E-10
      8.00000000000000E-01   8.00000000000000E-01   0.00000000000000E+00  -1.17455859214109E-12   6.24906827694535E-07
     -9.99563024866666E-11   6.24805696833457E-07   2.34419571826057E-13   0.00000000000000E+00   0.00000000000000E+00
      0.00000000000000E+00  -1.65241406666413E-11  -1.97157589264123E-16   3.51804996849358E-08   3.51639753471115E-08
     -6.20929529366863E-14  -4.50000000000000E+01  -4.50000000000000E+01   0.00000000000000E+00  -3.26690141509512E-07
     -6.26235849659831E-15  -3.33279524408700E-07  -6.59969672180571E-07  -1.72326618889372E-13
      7.07501996064559E-10
      8.00000000000000E-01   8.00000000000000E-01   0.00000000000000E+00  -6.58911719344616E-13   6.23767642729576E-07
     -7.18830014117135E-11   6.23695100816445E-07   2.34436751572609E-13   0.00000000000000E+00   0.00000000000000E+00
      0.00000000000000E+00  -1.71595633040930E-11  -1.97157617906100E-16   1.63944365028921E-08   1.63772767424304E-08
     -6.20915546820983E-14  -4.50000000000000E+01  -4.50000000000000E+01   0.00000000000000E+00  -3.08991270853908E-07
     -6.26278114780065E-15  -3.31081100442185E-07  -6.40072377558874E-07  -1.72345196890511E-13
      7.95179663752206E-10
      8.00000000000000E-01   8.00000000000000E-01   0.00000000000000E+00  -5.23262251044004E-14   6.23399150569042E-07
     -4.59973050414501E-11   6.23353100937775E-07   2.34462682541434E-13   0.00000000000000E+00   0.00000000000000E+00
      0.00000000000000E+00  -1.78814255174240E-11  -1.97157671315170E-16  -1.29218442198254E-08  -1.29397258425005E-08
     -6.20915484386320E-14  -4.50000000000000E+01  -4.50000000000000E+01   0.00000000000000E+00  -2.82679520228840E-07
     -6.26337115724709E-15  -3.27733848603067E-07  -6.10413375095278E-07  -1.72371134102805E-13
      9.26696165283676E-10
      8.00000000000000E-01   8.00000000000000E-01   0.00000000000000E+00   4.63120839020314E-13   6.24864239774663E-07
     -2.65495950981895E-11   6.24838153300404E-07   2.34502164633792E-13   0.00000000000000E+00   0.00000000000000E+00
      0.00000000000000E+00  -1.84212855629479E-11  -1.97157762274172E-16  -5.84952495292628E-08  -5.85136710119835E-08
     -6.20964234486794E-14  -4.50000000000000E+01  -4.50000000000000E+01   0.00000000000000E+00  -2.43637225247810E-07
     -6.26415826674935E-15  -3.22687250776454E-07  -5.66324482288422E-07  -1.72405741185112E-13
      1.02533354143228E-09
      8.00000000000000E-01   8.00000000000000E-01   0.00000000000000E+00   5.06355955079030E-13   6.26682631791036E-07
     -1.95163415423788E-11   6.26663621805449E-07   2.34532346763699E-13   0.00000000000000E+00   0.00000000000000E+00
      0.00000000000000E+00  -1.83585241439729E-11  -1.97157812464879E-16  -9.30872731870771E-08  -9.31056319083789E-08
     -6.21040046348327E-14  -4.50000000000000E+01  -4.50000000000000E+01   0.00000000000000E+00  -2.14645990737237E-07
     -6.26467223525574E-15  -3.18911992895162E-07  -5.33557989897071E-07  -1.72428342128867E-13
      1.17328960565518E-09
      8.00000000000000E-01   8.00000000000000E-01   0.00000000000000E+00  -1.73718300615013E-13   6.28319518642288E-07
     -1.37884627405200E-11   6.28305556461247E-07   2.34578531913267E-13   0.00000000000000E+00   0.00000000000000E+00
      0.00000000000000E+00  -1.72549744774730E-11  -1.97157701526733E-16  -1.43406876901688E-07  -1.43424132073323E-07
     -6.21216196973850E-14  -4.50000000000000E+01  -4.50000000000000E+01   0.00000000000000E+00  -1.71596684549650E-07
     -6.26532187515864E-15  -3.13284733572950E-07  -4.84881424387923E-07  -1.72456912215882E-13
      1.28425665382236E-09
      8.00000000000000E-01   8.00000000000000E-01   0.00000000000000E+00  -1.47019164243712E-12   6.26665349849472E-07
     -1.13719625460705E-11   6.26652507695283E-07   2.34613672952295E-13   0.00000000000000E+00   0.00000000000000E+00
      0.00000000000000E+00  -1.53283887194952E-11  -1.97157226055824E-16  -1.77863395997528E-07  -1.77878724583405E-07
     -6.21394917058163E-14  -4.50000000000000E+01  -4.50000000000000E+01   0.00000000000000E+00  -1.39679408204771E-07
     -6.26571451553057E-15  -3.09094368641396E-07  -4.48773783111882E-07  -1.72474181246479E-13
      1.36748193994775E-09
      8.00000000000000E-01   8.00000000000000E-01   0.00000000000000E+00  -3.03597443745185E-12   6.22318755193433E-07
     -1.00692050185358E-11   6.22305650013977E-07   2.34640056999740E-13   0.00000000000000E+00   0.00000000000000E+00
      0.00000000000000E+00  -1.30733606576624E-11  -1.97156392338728E-16  -2.00332443291475E-07  -2.00345516849289E-07
     -6.21552375122830E-14  -4.50000000000000E+01  -4.50000000000000E+01   0.00000000000000E+00  -1.15991051910137E-07
     -6.26595638886430E-15  -3.05969074988594E-07  -4.21960133164688E-07  -1.72484819487457E-13
      1.49231986913582E-09
      8.00000000000000E-01   8.00000000000000E-01   0.00000000000000E+00  -6.38182758659838E-12   6.07995917560656E-07
     -8.58118219013062E-12   6.07980954550880E-07   2.34678960655701E-13   0.00000000000000E+00   0.00000000000000E+00
      0.00000000000000E+00  -8.22756695584333E-12  -1.97153629356854E-16  -2.25643306517112E-07  -2.25651534281222E-07
     -6.21818483390854E-14  -4.50000000000000E+01  -4.50000000000000E+01   0.00000000000000E+00  -8.10195903749349E-08
     -6.26623589092771E-15  -3.01309823628485E-07  -3.82329420269655E-07  -1.72497112316616E-13
      1.58594831602688E-09
      8.00000000000000E-01   8.00000000000000E-01   0.00000000000000E+00  -9.59643483775503E-12   5.89276787861147E-07
     -7.70902809698237E-12   5.89259482398212E-07   2.34706937706595E-13   0.00000000000000E+00   0.00000000000000E+00
      0.00000000000000E+00  -3.51972014913826E-12  -1.97149606909610E-16  -2.35999886775575E-07  -2.36003406692874E-07
     -6.22034409338754E-14  -4.50000000000000E+01  -4.50000000000000E+01   0.00000000000000E+00  -5.54175393004620E-08
     -6.26638107479851E-15  -2.97838530138495E-07  -3.53256075705338E-07  -1.72503496772720E-13
      1.72639098636346E-09
      8.00000000000000E-01   8.00000000000000E-01   0.00000000000000E+00  -1.49370832726574E-11   5.45709467650058E-07
     -6.64611727619343E-12   5.45687884449509E-07   2.34745185451011E-13   0.00000000000000E+00   0.00000000000000E+00
      0.00000000000000E+00   4.54288595827984E-12  -1.97138134365510E-16  -2.34400638832390E-07  -2.34396096143569E-07
     -6.22365039177526E-14  -4.50000000000000E+01  -4.50000000000000E+01   0.00000000000000E+00  -1.86205606929741E-08
     -6.26649903703898E-15  -2.92671221346467E-07  -3.11291788305940E-07  -1.72508681533258E-13
      1.83172298911590E-09
      8.00000000000000E-01   8.00000000000000E-01   0.00000000000000E+00  -1.87096803912019E-11   5.00643303918164E-07
     -5.98921954763235E-12   5.00618605018225E-07   2.34769631617749E-13   0.00000000000000E+00   0.00000000000000E+00
      0.00000000000000E+00   1.05582704331747E-11  -1.97123255409092E-16  -2.18992410166459E-07  -2.18981852093150E-07
     -6.22603566781298E-14  -4.50000000000000E+01  -4.50000000000000E+01   0.00000000000000E+00   7.19233323566919E-09
     -6.26651262647964E-15  -2.88829079894230E-07  -2.81636752925074E-07  -1.72509274939620E-13
      1.98972099324456E-09
      8.00000000000000E-01   8.00000000000000E-01   0.00000000000000E+00  -2.25680017761655E-11   4.17219671330010E-07
     -5.16264140894043E-12   4.17191940686825E-07   2.34796952100006E-13   0.00000000000000E+00   0.00000000000000E+00
      0.00000000000000E+00   1.76016169182102E-11  -1.97086083931660E-16  -1.75947376017895E-07  -1.75929774598063E-07
     -6.22915898951013E-14  -4.50000000000000E+01  -4.50000000000000E+01   0.00000000000000E+00   4.18638385475238E-08
     -6.26642386919308E-15  -2.83125998369862E-07  -2.41262166088762E-07  -1.72505362204905E-13
      2.10821949634105E-09
      8.00000000000000E-01   8.00000000000000E-01   0.00000000000000E+00  -2.34102861507736E-11   3.47629500818764E-07
     -4.64111202109663E-12   3.47601449420593E-07   2.34808926578353E-13   0.00000000000000E+00   0.00000000000000E+00
      0.00000000000000E+00   2.03765690237816E-11  -1.97043564007229E-16  -1.32747572391745E-07  -1.32727196019765E-07
     -6.23098566028501E-14  -4.50000000000000E+01  -4.50000000000000E+01   0.00000000000000E+00   6.40271559973540E-08
     -6.26628099739363E-15  -2.78901403131901E-07  -2.14874253400828E-07  -1.72499069975503E-13
      2.28596725098579E-09
      8.00000000000000E-01   8.00000000000000E-01   0.00000000000000E+00  -2.12786112715886E-11   2.45808435352107E-07
     -3.97869409566777E-12   2.45783178046740E-07   2.34812544453340E-13   0.00000000000000E+00   0.00000000000000E+00
      0.00000000000000E+00   2.00512931590676E-11  -1.96952693613807E-16  -6.35830781797318E-08  -6.35630270835254E-08
     -6.23272651917373E-14  -4.50000000000000E+01  -4.50000000000000E+01   0.00000000000000E+00   9.04424147848519E-08
     -6.26596776911284E-15  -2.72662559482099E-07  -1.82220150963215E-07  -1.72485279261602E-13
      2.41927806696935E-09
      8.00000000000000E-01   8.00000000000000E-01   0.00000000000000E+00  -1.77524527251149E-11   1.79377884509862E-07
     -3.55829600739878E-12   1.79356573761130E-07   2.34804807572413E-13   0.00000000000000E+00   0.00000000000000E+00
      0.00000000000000E+00   1.70475158887181E-11  -1.96863930990634E-16  -1.63703903879156E-08  -1.63533430688908E-08
     -6.23325835376342E-14  -4.50000000000000E+01  -4.50000000000000E+01   0.00000000000000E+00   1.05065544471452E-07
     -6.26567119314892E-15  -2.68068768898019E-07  -1.63003230692239E-07  -1.72472224034778E-13
      2.61924429094468E-09
      8.00000000000000E-01   8.00000000000000E-01   0.00000000000000E+00  -1.16263265839497E-11   1.04510645798501E-07
     -3.02158902054017E-12   1.04495997882896E-07   2.34780121775964E-13   0.00000000000000E+00   0.00000000000000E+00
      0.00000000000000E+00   1.08188765781807E-11  -1.96706796758850E-16   3.66256241375149E-08   3.66364428173863E-08
     -6.23304789019111E-14  -4.50000000000000E+01  -4.50000000000000E+01   0.00000000000000E+00   1.20188955706836E-07
     -6.26515814406913E-15  -2.61321390141961E-07  -1.41132440700283E-07  -1.72449642874053E-13
      2.76921895892618E-09
      8.00000000000000E-01   8.00000000000000E-01   0.00000000000000E+00  -7.57409717809286E-12   6.78373815721234E-08
     -2.67874356385917E-12   6.78271287313815E-08   2.34754270208014E-13   0.00000000000000E+00   0.00000000000000E+00
      0.00000000000000E+00   6.37997441514109E-12  -1.96579975615026E-16   6.09665259820688E-08   6.09729057599040E-08
     -6.23232217084806E-14  -4.50000000000000E+01  -4.50000000000000E+01   0.00000000000000E+00   1.27559316748564E-07
     -6.26473562199509E-15  -2.56359344975114E-07  -1.28800034491286E-07  -1.72431048499533E-13
      2.88169995991231E-09
      8.00000000000000E-01   8.00000000000000E-01   0.00000000000000E+00  -5.25617836166687E-12   4.93943697675996E-08
     -2.44883952827771E-12   4.93866647497096E-08   2.34732328761098E-13   0.00000000000000E+00   0.00000000000000E+00
      0.00000000000000E+00   3.72147162066684E-12  -1.96485993962606E-16   7.16586724110316E-08   7.16623936861663E-08
     -6.23158613363629E-14  -4.50000000000000E+01  -4.50000000000000E+01   0.00000000000000E+00   1.31621214943133E-07
     -6.26440426553847E-15  -2.52670267114605E-07  -1.21049058435876E-07  -1.72416467424734E-13
      2.96606071065190E-09
      8.00000000000000E-01   8.00000000000000E-01   0.00000000000000E+00  -3.90853273677029E-12   3.94797034857637E-08
     -2.28973192271998E-12   3.94735052211043E-08   2.34714970559925E-13   0.00000000000000E+00   0.00000000000000E+00
      0.00000000000000E+00   2.16953782921253E-12  -1.96418468766658E-16   7.63259529689003E-08   7.63281223103110E-08
     -6.23097128486330E-14  -4.50000000000000E+01  -4.50000000000000E+01   0.00000000000000E+00   1.34101607386504E-07
     -6.26414950772445E-15  -2.49903228653770E-07  -1.15801627531415E-07  -1.72405257711291E-13
      3.02933127370660E-09
      8.00000000000000E-01   8.00000000000000E-01   0.00000000000000E+00  -3.11742510588493E-12   3.37568778485089E-08
     -2.17722116179353E-12   3.37515832022412E-08   2.34701618780380E-13   0.00000000000000E+00   0.00000000000000E+00
      0.00000000000000E+00   1.23403349106941E-12  -1.96370252246132E-16   7.83410712795225E-08   7.83423051166433E-08
     -6.23048975168045E-14  -4.50000000000000E+01  -4.50000000000000E+01   0.00000000000000E+00   1.35722616131837E-07
     -6.26395549521937E-15  -2.47816498186766E-07  -1.12093888318885E-07  -1.72396721263575E-13
      3.12423711828864E-09
      8.00000000000000E-01   8.00000000000000E-01   0.00000000000000E+00  -2.18142685973019E-12   2.72617562414868E-08
     -2.01854889312033E-12   2.72575562657340E-08   2.34681262020704E-13   0.00000000000000E+00   0.00000000000000E+00
      0.00000000000000E+00   1.55027402571254E-13  -1.96302636266430E-16   7.95364412577497E-08   7.95365960888496E-08
     -6.22975239405695E-14  -4.50000000000000E+01  -4.50000000000000E+01   0.00000000000000E+00   1.37850419249492E-07
     -6.26366040568662E-15  -2.44644565340415E-07  -1.06794152354584E-07  -1.72383738080134E-13
      3.15982681000690E-09
      8.00000000000000E-01   8.00000000000000E-01   0.00000000000000E+00  -1.84543465201154E-12   2.53536902714118E-08
     -1.96201126291231E-12   2.53498828254969E-08   2.34673560992101E-13   0.00000000000000E+00   0.00000000000000E+00
      0.00000000000000E+00  -1.62628085181717E-13  -1.96278848883378E-16   7.95212518155812E-08   7.95210889912172E-08
     -6.22947417556791E-14  -4.50000000000000E+01  -4.50000000000000E+01   0.00000000000000E+00   1.38565451608366E-07
     -6.26354860314209E-15  -2.43436417161532E-07  -1.04870971816714E-07  -1.72378819236422E-13
      3.16649987720408E-09
      8.00000000000000E-01   8.00000000000000E-01   0.00000000000000E+00  -1.88813691901110E-12   2.50224983694772E-08
     -1.95158295298311E-12   2.50186586496052E-08   2.34672114512738E-13   0.00000000000000E+00   0.00000000000000E+00
      0.00000000000000E+00  -2.25695293105818E-13  -1.96274488147282E-16   7.94950177658684E-08   7.94947918743008E-08
     -6.22942203657799E-14  -4.50000000000000E+01  -4.50000000000000E+01   0.00000000000000E+00   1.38694992800935E-07
     -6.26352757613498E-15  -2.43208437061313E-07  -1.04513450523906E-07  -1.72377894146957E-13
      3.17150467760196E-09
      8.00000000000000E-01   8.00000000000000E-01   0.00000000000000E+00  -1.85554494804080E-12   2.47792388893673E-08
     -1.94379693041945E-12   2.47754395474888E-08   2.34671029230172E-13   0.00000000000000E+00   0.00000000000000E+00
      0.00000000000000E+00  -2.25559270992261E-13  -1.96271238380915E-16   7.94707647150799E-08   7.94705389595377E-08
     -6.22938294647737E-14  -4.50000000000000E+01  -4.50000000000000E+01   0.00000000000000E+00   1.38791152070437E-07
     -6.26351179299936E-15  -2.43037124313952E-07  -1.04245978507026E-07  -1.72377199765400E-13
      3.17901187819878E-09
      8.00000000000000E-01   8.00000000000000E-01   0.00000000000000E+00  -1.80506574626715E-12   2.44223896075506E-08
     -1.93217416951181E-12   2.44186523676348E-08   2.34669400684534E-13   0.00000000000000E+00   0.00000000000000E+00
      0.00000000000000E+00  -3.30547193164031E-13  -1.96266397217515E-16   7.94274032998854E-08   7.94270725564258E-08
     -6.22932433885272E-14  -4.50000000000000E+01  -4.50000000000000E+01   0.00000000000000E+00   1.38933893307909E-07
     -6.26348809782543E-15  -2.42779611968482E-07  -1.03845724924061E-07  -1.72376157296006E-13
      3.19027267909401E-09
      8.00000000000000E-01   8.00000000000000E-01   0.00000000000000E+00  -1.73335477098290E-12   2.39046566602258E-08
     -1.91486581065370E-12   2.39010084396442E-08   2.34666956618588E-13   0.00000000000000E+00   0.00000000000000E+00
      0.00000000000000E+00  -4.04826095612639E-13  -1.96259210999024E-16   7.93468216691570E-08   7.93464166468022E-08
     -6.22923650181132E-14  -4.50000000000000E+01  -4.50000000000000E+01   0.00000000000000E+00   1.39144657213598E-07
     -6.26345250961868E-15  -2.42392076036592E-07  -1.03247425086446E-07  -1.72374591600476E-13
      3.20716388043686E-09
      8.00000000000000E-01   8.00000000000000E-01   0.00000000000000E+00  -1.63275250936559E-12   2.31657170335972E-08
     -1.88918351964221E-12   2.31621950975682E-08   2.34663288206863E-13   0.00000000000000E+00   0.00000000000000E+00