DF-ISE text

Info {
  version   = 1.0
  type      = xyplot
  datasets  = [
    "time"
    "Ntop OuterVoltage" "Ntop InnerVoltage" "Ntop QuasiFermiPotential" "Ntop DisplacementCurrent" "Ntop eCurrent"
    "Ntop hCurrent" "Ntop TotalCurrent" "Ntop Charge" "Ptop OuterVoltage" "Ptop InnerVoltage"
    "Ptop QuasiFermiPotential" "Ptop DisplacementCurrent" "Ptop eCurrent" "Ptop hCurrent" "Ptop TotalCurrent"
    "Ptop Charge" "Pbot OuterVoltage" "Pbot InnerVoltage" "Pbot QuasiFermiPotential" "Pbot DisplacementCurrent"
    "Pbot eCurrent" "Pbot hCurrent" "Pbot TotalCurrent" "Pbot Charge" ]
  functions = [
    Time
    OuterVoltage InnerVoltage QuasiFermiPotential DisplacementCurrent eCurrent
    hCurrent TotalCurrent Charge OuterVoltage InnerVoltage
    QuasiFermiPotential DisplacementCurrent eCurrent hCurrent TotalCurrent
    Charge OuterVoltage InnerVoltage QuasiFermiPotential DisplacementCurrent
    eCurrent hCurrent TotalCurrent Charge ]
}

Data {
      5.00000000000000E-13
      8.00000000000000E-01   8.00000000000000E-01   0.00000000000000E+00   1.05772353607772E-14   1.17639542533289E-11
     -1.09965334801508E-11   7.77998008538867E-13   2.34224766837385E-13   0.00000000000000E+00   0.00000000000000E+00
      0.00000000000000E+00  -1.23465351092269E-13  -1.97157898427933E-16   1.75458770619525E-09   1.75446404368626E-09
     -6.21801123148893E-14  -4.50000000000000E+01  -4.50000000000000E+01   0.00000000000000E+00  -6.51853608585798E-13
      2.19331510879192E-11  -1.77652333917413E-09  -1.75524204169479E-09  -1.72044654522496E-13
      1.25000000000000E-12
      8.00000000000000E-01   8.00000000000000E-01   0.00000000000000E+00   1.64164256259133E-13   5.36352252058775E-11
     -5.07413450890553E-11   3.05804437308130E-12   2.34224766837993E-13   0.00000000000000E+00   0.00000000000000E+00
      0.00000000000000E+00   4.43092273456647E-14  -1.97157898424262E-16   1.75633092850632E-09   1.75637504057577E-09
     -6.21801123139243E-14  -4.50000000000000E+01  -4.50000000000000E+01   0.00000000000000E+00  -3.74820395384108E-12
      1.01206610878844E-10  -1.85689149187385E-09  -1.75943308494885E-09  -1.72044654524068E-13
      2.37500000000000E-12
      8.00000000000000E-01   8.00000000000000E-01   0.00000000000000E+00   1.27337302228678E-12   4.48455327111581E-10
     -4.19838883492733E-10   2.98898166411354E-11   2.34224766846850E-13   0.00000000000000E+00   0.00000000000000E+00
      0.00000000000000E+00   1.65511460130900E-12  -1.97157898380990E-16   1.77770088829583E-09   1.77935580573924E-09
     -6.21801122994648E-14  -4.50000000000000E+01  -4.50000000000000E+01   0.00000000000000E+00  -4.06056068898427E-11
      8.37169844937881E-10  -2.60580986042842E-09  -1.80924562238038E-09  -1.72044654547385E-13
      4.06250000000000E-12
      8.00000000000000E-01   8.00000000000000E-01   0.00000000000000E+00   1.91429011017091E-11   6.96841719464702E-09
     -6.36905303018063E-09   6.18507065568099E-10   2.34224767107064E-13   0.00000000000000E+00   0.00000000000000E+00
      0.00000000000000E+00   2.45163686512178E-11  -1.97157897390105E-16   2.26909309772461E-09   2.29360926921793E-09
     -6.21801118618439E-14  -4.50000000000000E+01  -4.50000000000000E+01   0.00000000000000E+00  -8.56763882028096E-10
      1.26933868649804E-08  -1.47487393177383E-08  -2.91211633478602E-09  -1.72044655245219E-13
      6.59375000000000E-12
      8.00000000000000E-01   8.00000000000000E-01   0.00000000000000E+00   3.81327634741808E-10   1.45108129201485E-07
     -1.27460052227561E-07   1.80294046086657E-08   2.34224778198105E-13   0.00000000000000E+00   0.00000000000000E+00
      0.00000000000000E+00   4.94711789074176E-10  -1.97157867133244E-16   1.72594850620452E-08   1.77541966539615E-08
     -6.21800927101980E-14  -4.50000000000000E+01  -4.50000000000000E+01   0.00000000000000E+00  -2.51818118946514E-08
      2.53800990058401E-07  -2.64402779426377E-07  -3.57836012626273E-08  -1.72044685487906E-13
      1.03906250000000E-11
      8.00000000000000E-01   8.00000000000000E-01   0.00000000000000E+00   3.18738123625710E-09   1.30102474904341E-06
     -1.06087958278886E-06   2.43332547490798E-07   2.34225013360650E-13   0.00000000000000E+00   0.00000000000000E+00
      0.00000000000000E+00   4.09615643606548E-09  -1.97157468293875E-16   2.14538081715210E-07   2.18634237954118E-07
     -6.21796809178200E-14  -4.50000000000000E+01  -4.50000000000000E+01   0.00000000000000E+00  -3.40258877668603E-07
      2.10882849922010E-06  -2.23053640699641E-06  -4.61966785444914E-07  -1.72045332442830E-13
      1.60859375000000E-11
      8.00000000000000E-01   8.00000000000000E-01   0.00000000000000E+00   1.86422711470316E-09   1.16378678934363E-06
     -5.67699477395114E-07   5.97951539063218E-07   2.34226247854966E-13   0.00000000000000E+00   0.00000000000000E+00
      0.00000000000000E+00   1.91878103124979E-09  -1.97156864329732E-16   5.11460476290287E-07   5.13379257124380E-07
     -6.21775645910382E-14  -4.50000000000000E+01  -4.50000000000000E+01   0.00000000000000E+00  -8.16078431368183E-07
      1.11120765666289E-06  -1.40646002148230E-06  -1.11133079618759E-06  -1.72048683263929E-13
      2.46289062500000E-11
      8.00000000000000E-01   8.00000000000000E-01   0.00000000000000E+00   2.51171971615950E-10   7.96935552477509E-07
     -1.41816691131877E-08   7.83005055335937E-07   2.34229329675761E-13   0.00000000000000E+00   0.00000000000000E+00
      0.00000000000000E+00  -3.08422278084400E-10  -1.97156689618846E-16   5.94103593878559E-07   5.93795171403318E-07
     -6.21727579679643E-14  -4.50000000000000E+01  -4.50000000000000E+01   0.00000000000000E+00  -9.96991120475521E-07
      2.05905100960768E-09  -3.81868157273343E-07  -1.37680022673926E-06  -1.72056571707796E-13
      3.74433593750000E-11
      8.00000000000000E-01   8.00000000000000E-01   0.00000000000000E+00   1.81511076045574E-10   8.59326445893379E-07
     -1.19590950191491E-08   8.47548861950275E-07   2.34234790209807E-13   0.00000000000000E+00   0.00000000000000E+00
      0.00000000000000E+00  -2.31350635592830E-10  -1.97156809017250E-16   5.29987756817024E-07   5.29756405984274E-07
     -6.21655973588072E-14  -4.50000000000000E+01  -4.50000000000000E+01   0.00000000000000E+00  -9.72754019950688E-07
     -6.25635283011752E-15  -4.04551241727510E-07  -1.37730526793455E-06  -1.72069192851001E-13
      5.66650390625000E-11
      8.00000000000000E-01   8.00000000000000E-01   0.00000000000000E+00   1.23269344691861E-10   9.24626849922937E-07
     -1.03597083050842E-08   9.14390410962545E-07   2.34243726579496E-13   0.00000000000000E+00   0.00000000000000E+00
      0.00000000000000E+00  -1.65700055087128E-10  -1.97156941161781E-16   4.58044689164658E-07   4.57878988912414E-07
     -6.21561750119638E-14  -4.50000000000000E+01  -4.50000000000000E+01   0.00000000000000E+00  -9.37803966680475E-07
     -6.25691821913001E-15  -4.34465426937567E-07  -1.37226939987496E-06  -1.72087551567533E-13
      8.54975585937500E-11
      8.00000000000000E-01   8.00000000000000E-01   0.00000000000000E+00   7.31979737570327E-11   9.85361586122856E-07
     -8.34930512622338E-09   9.77085478970390E-07   2.34258092998278E-13   0.00000000000000E+00   0.00000000000000E+00
      0.00000000000000E+00  -1.08434468080494E-10  -1.97157074120086E-16   3.83881118042723E-07   3.83772683377486E-07
     -6.21441634950848E-14  -4.50000000000000E+01  -4.50000000000000E+01   0.00000000000000E+00  -8.92622846917220E-07
     -6.25751405730407E-15  -4.68235309173139E-07  -1.36085816234787E-06  -1.72113929503193E-13
      1.28746337890625E-10
      8.00000000000000E-01   8.00000000000000E-01   0.00000000000000E+00   3.35709334568900E-11   1.03165387543150E-06
     -6.03705782186313E-09   1.02565038854309E-06   2.34280598620473E-13   0.00000000000000E+00   0.00000000000000E+00
      0.00000000000000E+00  -6.27854479034075E-11  -1.97157191780979E-16   3.14665625844805E-07   3.14602840199745E-07
     -6.21292657219091E-14  -4.50000000000000E+01  -4.50000000000000E+01   0.00000000000000E+00  -8.38231014015575E-07
     -6.25836116732271E-15  -5.02022208468900E-07  -1.34025322874284E-06  -1.72151332898563E-13
      1.61182922363281E-10
      8.00000000000000E-01   8.00000000000000E-01   0.00000000000000E+00   1.74556491995572E-11   1.04652648233833E-06
     -4.73837165758638E-09   1.04180556632994E-06   2.34297697918018E-13   0.00000000000000E+00   0.00000000000000E+00
      0.00000000000000E+00  -4.44981032203985E-11  -1.97157241637897E-16   2.81836150190281E-07   2.81791651889904E-07
     -6.21197155238478E-14  -4.50000000000000E+01  -4.50000000000000E+01   0.00000000000000E+00  -8.05402750410360E-07
     -6.25896587795272E-15  -5.18194461550518E-07  -1.32359721821984E-06  -1.72177982394170E-13
      2.09837799072266E-10
      8.00000000000000E-01   8.00000000000000E-01   0.00000000000000E+00   3.95417630850265E-12   1.05309148147670E-06
     -3.29585061725750E-09   1.04979958503576E-06   2.34323173965560E-13   0.00000000000000E+00   0.00000000000000E+00
      0.00000000000000E+00  -2.97060531809190E-11  -1.97157283019780E-16   2.47916856074145E-07   2.47887149823807E-07
     -6.21070166871170E-14  -4.50000000000000E+01  -4.50000000000000E+01   0.00000000000000E+00  -7.64489765491214E-07
     -6.25983303371756E-15  -5.33196963108512E-07  -1.29768673485956E-06  -1.72216157278444E-13
      2.46328956604004E-10
      8.00000000000000E-01   8.00000000000000E-01   0.00000000000000E+00  -1.16431521965180E-12   1.05115924535425E-06
     -2.51602060153793E-09   1.04864206043750E-06   2.34342008423395E-13   0.00000000000000E+00   0.00000000000000E+00
      0.00000000000000E+00  -2.44332527150590E-11  -1.97157298081181E-16   2.29184583095232E-07   2.29160149645360E-07
     -6.20984359096740E-14  -4.50000000000000E+01  -4.50000000000000E+01   0.00000000000000E+00  -7.38326061047773E-07
     -6.26045622753157E-15  -5.39476142774628E-07  -1.27780221008286E-06  -1.72243572513721E-13
      3.01065692901611E-10
      8.00000000000000E-01   8.00000000000000E-01   0.00000000000000E+00  -4.79651058330983E-12   1.04371373061802E-06
     -1.68125091172452E-09   1.04202768319571E-06   2.34369739317633E-13   0.00000000000000E+00   0.00000000000000E+00
      0.00000000000000E+00  -2.10631141160488E-11  -1.97157308293033E-16   2.05592346952452E-07   2.05571283641179E-07
     -6.20867166607799E-14  -4.50000000000000E+01  -4.50000000000000E+01   0.00000000000000E+00  -7.03474311550852E-07
     -6.26135334286949E-15  -5.44124649024683E-07  -1.24759896683689E-06  -1.72283022656855E-13
      3.42118245124817E-10
      8.00000000000000E-01   8.00000000000000E-01   0.00000000000000E+00  -5.68670897218163E-12   1.03675279128277E-06
     -1.24812285167172E-09   1.03549898172213E-06   2.34390145932202E-13   0.00000000000000E+00   0.00000000000000E+00
      0.00000000000000E+00  -2.05277236274248E-11  -1.97157311505431E-16   1.89320784380017E-07   1.89300256459232E-07
     -6.20787357603678E-14  -4.50000000000000E+01  -4.50000000000000E+01   0.00000000000000E+00  -6.79632367410245E-07
     -6.26199904033855E-15  -5.45166864509119E-07  -1.22479923818136E-06  -1.72311410171833E-13
      4.03697073459625E-10
      8.00000000000000E-01   8.00000000000000E-01   0.00000000000000E+00  -5.66914764407585E-12   1.02649908441897E-06
     -8.02306008198892E-10   1.02569110926313E-06   2.34420228038379E-13   0.00000000000000E+00   0.00000000000000E+00
      0.00000000000000E+00  -2.11098686599018E-11  -1.97157316276424E-16   1.64883450569976E-07   1.64862340504159E-07
     -6.20680068579946E-14  -4.50000000000000E+01  -4.50000000000000E+01   0.00000000000000E+00  -6.46025380888301E-07
     -6.26292739764873E-15  -5.44528062616053E-07  -1.19055344976728E-06  -1.72352221180384E-13
      4.49881194710732E-10
      8.00000000000000E-01   8.00000000000000E-01   0.00000000000000E+00  -5.11214811900342E-12   1.01966296755419E-06
     -5.80864824132462E-10   1.01907699058194E-06   2.34442456920187E-13   0.00000000000000E+00   0.00000000000000E+00
      0.00000000000000E+00  -2.20618902683707E-11  -1.97157322680375E-16   1.45849454889150E-07   1.45827392801724E-07
     -6.20609574500269E-14  -4.50000000000000E+01  -4.50000000000000E+01   0.00000000000000E+00  -6.21927232838310E-07
     -6.26359341740353E-15  -5.42977144281768E-07  -1.16490438338367E-06  -1.72381499470159E-13
      4.84519285649061E-10
      8.00000000000000E-01   8.00000000000000E-01   0.00000000000000E+00  -4.56871591326958E-12   1.01520692870024E-06
     -4.58353163834634E-10   1.01474400682049E-06   2.34458989395115E-13   0.00000000000000E+00   0.00000000000000E+00
      0.00000000000000E+00  -2.28780899478363E-11  -1.97157330181219E-16   1.30990617923968E-07   1.30967739636863E-07
     -6.20562540614310E-14  -4.50000000000000E+01  -4.50000000000000E+01   0.00000000000000E+00  -6.04252892996096E-07
     -6.26407647039602E-15  -5.41458847197179E-07  -1.14571174645735E-06  -1.72402735333684E-13
      5.36476422056556E-10
      8.00000000000000E-01   8.00000000000000E-01   0.00000000000000E+00  -3.69102662478530E-12   1.00966768167802E-06
     -3.23850088120978E-10   1.00934014056328E-06   2.34483634472211E-13   0.00000000000000E+00   0.00000000000000E+00
      0.00000000000000E+00  -2.40953441018235E-11  -1.97157346799876E-16   1.07696502078508E-07   1.07672406537249E-07
     -6.20501821954598E-14  -4.50000000000000E+01  -4.50000000000000E+01   0.00000000000000E+00  -5.78180289171009E-07
     -6.26477514259698E-15  -5.38832251664747E-07  -1.11701254710053E-06  -1.72433452276751E-13
      6.14412126667798E-10
      8.00000000000000E-01   8.00000000000000E-01   0.00000000000000E+00  -2.41394460628936E-12   1.00382328752114E-06
     -1.96509429573802E-10   1.00362436414696E-06   2.34520421535989E-13   0.00000000000000E+00   0.00000000000000E+00
      0.00000000000000E+00  -2.57782090937363E-11  -1.97157385338391E-16   7.05901925560106E-08   7.05644141497595E-08
     -6.20434081959379E-14  -4.50000000000000E+01  -4.50000000000000E+01   0.00000000000000E+00  -5.39746307211920E-07
     -6.26576583610425E-15  -5.34442464819033E-07  -1.07418877829672E-06  -1.72477013340051E-13
      6.72863905126229E-10
      8.00000000000000E-01   8.00000000000000E-01   0.00000000000000E+00  -1.56692095311880E-12   1.00118537483149E-06
     -1.38773895997054E-10   1.00104503401454E-06   2.34547990005377E-13   0.00000000000000E+00   0.00000000000000E+00
      0.00000000000000E+00  -2.68455684531446E-11  -1.97157425569562E-16   4.12379796318804E-08   4.12111338662699E-08
     -6.20402597569104E-14  -4.50000000000000E+01  -4.50000000000000E+01   0.00000000000000E+00  -5.11292115637966E-07
     -6.26646431807548E-15  -5.30964045976381E-07  -1.04225616788081E-06  -1.72507730248466E-13
      7.60541572813876E-10
      8.00000000000000E-01   8.00000000000000E-01   0.00000000000000E+00  -5.42288779576326E-13   9.99495449592371E-07
     -8.59350040915378E-11   9.99408972299500E-07   2.34589516023881E-13   0.00000000000000E+00   0.00000000000000E+00
      0.00000000000000E+00  -2.80896808415071E-11  -1.97157503552634E-16  -4.72754510495994E-09  -4.75563498295895E-09
     -6.20388115781561E-14  -4.50000000000000E+01  -4.50000000000000E+01   0.00000000000000E+00  -4.69021465688933E-07
     -6.26744136523523E-15  -5.25631865360166E-07  -9.94653337316540E-07  -1.72550704445725E-13
      8.92058074345346E-10
      8.00000000000000E-01   8.00000000000000E-01   0.00000000000000E+00   3.99894926099047E-13   1.00052740483158E-06
     -4.68339303286416E-11   1.00048097079617E-06   2.34652584107331E-13   0.00000000000000E+00   0.00000000000000E+00
      0.00000000000000E+00  -2.91237881613641E-11  -1.97157646093016E-16  -7.65609026445908E-08  -7.65900266299098E-08
     -6.20443224034766E-14  -4.50000000000000E+01  -4.50000000000000E+01   0.00000000000000E+00  -4.06329343815202E-07
     -6.26874967147585E-15  -5.17561594082312E-07  -9.23890944166264E-07  -1.72608261703855E-13
      9.90695450493949E-10
      8.00000000000000E-01   8.00000000000000E-01   0.00000000000000E+00   6.02099971918417E-13   1.00279559557848E-06
     -3.30505567192268E-11   1.00276314712173E-06   2.34700704996831E-13   0.00000000000000E+00   0.00000000000000E+00
      0.00000000000000E+00  -2.92040352582321E-11  -1.97157740282733E-16  -1.31427057706139E-07  -1.31456261938555E-07
     -6.20546608650275E-14  -4.50000000000000E+01  -4.50000000000000E+01   0.00000000000000E+00  -3.59790950489307E-07
     -6.26960830545430E-15  -5.11515928424268E-07  -8.71306885183182E-07  -1.72646044131803E-13
      1.06467348260540E-09
      8.00000000000000E-01   8.00000000000000E-01   0.00000000000000E+00   4.13464799404172E-13   1.00451292010701E-06
     -2.67208088018463E-11   1.00448661276300E-06   2.34737305203131E-13   0.00000000000000E+00   0.00000000000000E+00
      0.00000000000000E+00  -2.88073314479078E-11  -1.97157761355754E-16  -1.72319826566030E-07  -1.72348634094636E-07
     -6.20659268809047E-14  -4.50000000000000E+01  -4.50000000000000E+01   0.00000000000000E+00  -3.25138564467878E-07
     -6.27018396964978E-15  -5.06999407930305E-07  -8.32137978668368E-07  -1.72671378322225E-13
      1.17564053077258E-09
      8.00000000000000E-01   8.00000000000000E-01   0.00000000000000E+00  -5.72946111104388E-13   1.00549198098043E-06
     -2.05733806528457E-11   1.00547083465366E-06   2.34792940804338E-13   0.00000000000000E+00   0.00000000000000E+00
      0.00000000000000E+00  -2.72401229254709E-11  -1.97157552913282E-16  -2.31615161980182E-07  -2.31642402300265E-07
     -6.20883463707152E-14  -4.50000000000000E+01  -4.50000000000000E+01   0.00000000000000E+00  -2.73571398654463E-07
     -6.27093865670358E-15  -5.00257027427996E-07  -7.73828432353398E-07  -1.72704594433623E-13
      1.25886581689796E-09
      8.00000000000000E-01   8.00000000000000E-01   0.00000000000000E+00  -2.01774042649819E-12   1.00358296001634E-06
     -1.75431045020412E-11   1.00356339917141E-06   2.34835078984504E-13   0.00000000000000E+00   0.00000000000000E+00
      0.00000000000000E+00  -2.50860326887419E-11  -1.97157005192708E-16  -2.73066291416934E-07  -2.73091377646780E-07
     -6.21093124569886E-14  -4.50000000000000E+01  -4.50000000000000E+01   0.00000000000000E+00  -2.35246326362450E-07
     -6.27141966588191E-15  -4.95225688890757E-07  -7.30472021524627E-07  -1.72725766527515E-13
      1.38370374608604E-09
      8.00000000000000E-01   8.00000000000000E-01   0.00000000000000E+00  -5.62534254108969E-12   9.92721008805339E-07
     -1.43381931253900E-11   9.92701045269672E-07   2.34898259585200E-13   0.00000000000000E+00   0.00000000000000E+00
      0.00000000000000E+00  -1.98250351344296E-11  -1.97154766101814E-16  -3.26513028200025E-07  -3.26532853432314E-07
     -6.21466757732254E-14  -4.50000000000000E+01  -4.50000000000000E+01   0.00000000000000E+00  -1.78447996643549E-07
     -6.27200620922713E-15  -4.87720188921802E-07  -6.66168191837357E-07  -1.72751583811974E-13
      1.47733219297710E-09
      8.00000000000000E-01   8.00000000000000E-01   0.00000000000000E+00  -9.56080057616110E-12   9.75367927581842E-07
     -1.25914635938528E-11   9.75345775317672E-07   2.34944886495282E-13   0.00000000000000E+00   0.00000000000000E+00
      0.00000000000000E+00  -1.41007676283101E-11  -1.97151086977279E-16  -3.56649229974544E-07  -3.56663330939324E-07
     -6.21785589013993E-14  -4.50000000000000E+01  -4.50000000000000E+01   0.00000000000000E+00  -1.36558612904519E-07
     -6.27234120900910E-15  -4.82123825201488E-07  -6.18682444378349E-07  -1.72766327593883E-13
      1.61777486331368E-09
      8.00000000000000E-01   8.00000000000000E-01   0.00000000000000E+00  -1.71232657054972E-11   9.28598346434355E-07
     -1.05758765870086E-11   9.28570647292063E-07   2.35011364473258E-13   0.00000000000000E+00   0.00000000000000E+00
      0.00000000000000E+00  -2.93021453842138E-12  -1.97139398512840E-16  -3.79286874714436E-07  -3.79289805126114E-07
     -6.22301620618183E-14  -4.50000000000000E+01  -4.50000000000000E+01   0.00000000000000E+00  -7.54961646551064E-08
     -6.27267930943245E-15  -4.73784671238161E-07  -5.49280842165947E-07  -1.72781202411438E-13
      1.72310686606612E-09
      8.00000000000000E-01   8.00000000000000E-01   0.00000000000000E+00  -2.34508985682086E-11   8.74516695285557E-07
     -9.38767329153031E-12   8.74483856713698E-07   2.35056607715406E-13   0.00000000000000E+00   0.00000000000000E+00
      0.00000000000000E+00   6.70508062349742E-12  -1.97122969258794E-16  -3.75178026820061E-07  -3.75171321936561E-07
     -6.22697678083836E-14  -4.50000000000000E+01  -4.50000000000000E+01   0.00000000000000E+00  -3.17361977272063E-08
     -6.27280761260575E-15  -4.67576330777125E-07  -4.99312534777139E-07  -1.72786839907021E-13
      1.88110487019478E-09
      8.00000000000000E-01   8.00000000000000E-01   0.00000000000000E+00  -3.18986175741688E-11   7.62939008072667E-07
     -7.94501425003070E-12   7.62899164440843E-07   2.35112717960694E-13   0.00000000000000E+00   0.00000000000000E+00
      0.00000000000000E+00   2.04738684391401E-11  -1.97078536306744E-16  -3.33455936530154E-07  -3.33435462858793E-07
     -6.23257011136055E-14  -4.50000000000000E+01  -4.50000000000000E+01   0.00000000000000E+00   2.88829780592655E-08
     -6.27281215096610E-15  -4.58346673368502E-07  -4.29463701582049E-07  -1.72787016847087E-13
      1.99960337329127E-09
      8.00000000000000E-01   8.00000000000000E-01   0.00000000000000E+00  -3.59873637393324E-11   6.60167709273852E-07
     -7.06420521171263E-12   6.60124657704901E-07   2.35142968504595E-13   0.00000000000000E+00   0.00000000000000E+00
      0.00000000000000E+00   2.82980764319076E-11  -1.97024324028634E-16  -2.77835444120515E-07  -2.77807146241107E-07
     -6.23617877829656E-14  -4.50000000000000E+01  -4.50000000000000E+01   0.00000000000000E+00   6.91796354486367E-08
     -6.27268008152389E-15  -4.51497140639750E-07  -3.82317511463793E-07  -1.72781180721630E-13
      2.17735112793601E-09
      8.00000000000000E-01   8.00000000000000E-01   0.00000000000000E+00  -3.67344885110134E-11   4.94167807226495E-07
     -5.97775093736943E-12   4.94125094987047E-07   2.35165964890182E-13   0.00000000000000E+00   0.00000000000000E+00
      0.00000000000000E+00   3.32607202180654E-11  -1.96900835890518E-16  -1.72184241645184E-07  -1.72150981121867E-07
     -6.24016414347945E-14  -4.50000000000000E+01  -4.50000000000000E+01   0.00000000000000E+00   1.19386267140439E-07
     -6.27229804348901E-15  -4.41360374733319E-07  -3.21974113865178E-07  -1.72764323455388E-13
      2.31066194391957E-09
      8.00000000000000E-01   8.00000000000000E-01   0.00000000000000E+00  -3.32330974910399E-11   3.74842302272419E-07
     -5.30872413404294E-12   3.74803760450794E-07   2.35165366535733E-13   0.00000000000000E+00   0.00000000000000E+00
      0.00000000000000E+00   3.15375874891376E-11  -1.96773471657427E-16  -8.94906869607893E-08  -8.94591495700736E-08
     -6.24189427729667E-14  -4.50000000000000E+01  -4.50000000000000E+01   0.00000000000000E+00   1.48536112961635E-07
     -6.27189216385053E-15  -4.33880717570463E-07  -2.85344610880720E-07  -1.72746423762765E-13
      2.41064505590723E-09
      8.00000000000000E-01   8.00000000000000E-01   0.00000000000000E+00  -2.89969873697459E-11   2.95407128478323E-07
     -4.87145460414126E-12   2.95373260036349E-07   2.35155684578121E-13   0.00000000000000E+00   0.00000000000000E+00
      0.00000000000000E+00   2.78844275380779E-11  -1.96660130132159E-16  -3.28720673280216E-08  -3.28441830971437E-08
     -6.24249916626856E-14  -4.50000000000000E+01  -4.50000000000000E+01   0.00000000000000E+00   1.65818721803810E-07
     -6.27153537726993E-15  -4.28347792471480E-07  -2.62529076939205E-07  -1.72730692915433E-13
      2.56061972388873E-09
      8.00000000000000E-01   8.00000000000000E-01   0.00000000000000E+00  -2.16451152061752E-11   1.98470849959459E-07
     -4.29831605729422E-12   1.98444906528196E-07   2.35128920797781E-13   0.00000000000000E+00   0.00000000000000E+00
      0.00000000000000E+00   2.05481683114449E-11  -1.96469168924789E-16   3.62585256302026E-08   3.62790736020449E-08
     -6.24246121239411E-14  -4.50000000000000E+01  -4.50000000000000E+01   0.00000000000000E+00   1.85452696509539E-07
     -6.27093684411673E-15  -4.20176670368842E-07  -2.34723980130241E-07  -1.72704308673841E-13
      2.67310072487486E-09
      8.00000000000000E-01   8.00000000000000E-01   0.00000000000000E+00  -1.62906603356163E-11   1.44056563941066E-07
     -3.92245375536377E-12   1.44036350826975E-07   2.35101242496039E-13   0.00000000000000E+00   0.00000000000000E+00
      0.00000000000000E+00   1.47939640678513E-11  -1.96316349729803E-16   7.39393164555493E-08   7.39541102233008E-08
     -6.24184093155938E-14  -4.50000000000000E+01  -4.50000000000000E+01   0.00000000000000E+00   1.96153402100596E-07
     -6.27044957911401E-15  -4.14143856880423E-07  -2.17990461050276E-07  -1.72682833180444E-13
      2.84182222635405E-09
      8.00000000000000E-01   8.00000000000000E-01   0.00000000000000E+00  -9.76704970025527E-12   8.82034846570739E-08
     -3.42684378315235E-12   8.81902907635905E-08   2.35051654388904E-13   0.00000000000000E+00   0.00000000000000E+00
      0.00000000000000E+00   7.49730218603068E-12  -1.96087155383916E-16   1.09285128689463E-07   1.09292625795562E-07
     -6.24029234893611E-14  -4.50000000000000E+01  -4.50000000000000E+01   0.00000000000000E+00   2.07720472991360E-07
     -6.26967568639406E-15  -4.05203383280837E-07  -1.97482916559152E-07  -1.72648730899543E-13
      2.96836335246344E-09
      8.00000000000000E-01   8.00000000000000E-01   0.00000000000000E+00  -6.30585767584463E-12   6.22663274354667E-08
     -3.09972578471741E-12   6.22569218520061E-08   2.35010398028780E-13   0.00000000000000E+00   0.00000000000000E+00
      0.00000000000000E+00   3.50300619011759E-12  -1.95924216774437E-16   1.22298567240955E-07   1.22302070051221E-07
     -6.23883555030654E-14  -4.50000000000000E+01  -4.50000000000000E+01   0.00000000000000E+00   2.13961605361157E-07
     -6.26906993757719E-15  -3.98520590995314E-07  -1.84558991903227E-07  -1.72622042525715E-13
      3.15817504162752E-09
      8.00000000000000E-01   8.00000000000000E-01   0.00000000000000E+00  -3.11432836104699E-12   3.96224426805081E-08
     -2.66692877753171E-12   3.96166614233696E-08   2.34945507088019E-13   0.00000000000000E+00   0.00000000000000E+00
      0.00000000000000E+00  -2.50114910765242E-13  -1.95706982030319E-16   1.27712824080169E-07   1.27712573769551E-07
     -6.23647605994855E-14  -4.50000000000000E+01  -4.50000000000000E+01   0.00000000000000E+00   2.20971627822075E-07
     -6.26813248103335E-15  -3.88300856746863E-07  -1.67329235192921E-07  -1.72580746488533E-13
      3.30053380850059E-09
      8.00000000000000E-01   8.00000000000000E-01   0.00000000000000E+00  -1.85306118349288E-12   3.05402205559071E-08
     -2.38165536636546E-12   3.05359858393573E-08   2.34895961758394E-13   0.00000000000000E+00   0.00000000000000E+00
      0.00000000000000E+00  -1.75060248849999E-12  -1.95569139450930E-16   1.24848574246843E-07   1.24846823448786E-07
     -6.23469562504800E-14  -4.50000000000000E+01  -4.50000000000000E+01   0.00000000000000E+00   2.24869714279847E-07
     -6.26741181538180E-15  -3.80252517300578E-07  -1.55382809288143E-07  -1.72549005507914E-13
      3.51407195881018E-09
      8.00000000000000E-01   8.00000000000000E-01   0.00000000000000E+00  -9.40409947881063E-13   2.29040624664507E-08
     -2.00744398422544E-12   2.29011146125186E-08   2.34822143978780E-13   0.00000000000000E+00   0.00000000000000E+00
      0.00000000000000E+00  -2.80945720781375E-12  -1.95402297951008E-16   1.15349455304510E-07   1.15346645651900E-07
     -6.23215878333645E-14  -4.50000000000000E+01  -4.50000000000000E+01   0.00000000000000E+00   2.28679814816040E-07
     -6.26631161835629E-15  -3.66927568814147E-07  -1.38247760264419E-07  -1.72500556145416E-13
      3.67422557154238E-09
      8.00000000000000E-01   8.00000000000000E-01   0.00000000000000E+00  -6.58701554569661E-13   1.95443605108301E-08
     -1.76433404289152E-12   1.95419374752327E-08   2.34767922505670E-13   0.00000000000000E+00   0.00000000000000E+00
      0.00000000000000E+00  -3.08436934496248E-12  -1.95304927761730E-16   1.06296521669887E-07   1.06293437105237E-07
     -6.23040794383568E-14  -4.50000000000000E+01  -4.50000000000000E+01   0.00000000000000E+00   2.29631036983185E-07
     -6.26547780217042E-15  -3.55466405298177E-07  -1.25835374580470E-07  -1.72463843067313E-13
      3.91445599064068E-09
      8.00000000000000E-01   8.00000000000000E-01   0.00000000000000E+00  -4.73272025221210E-13   1.59628866500168E-08
     -1.45158187402583E-12   1.59609617961176E-08   2.34689577719702E-13   0.00000000000000E+00   0.00000000000000E+00
      0.00000000000000E+00  -3.14764892401299E-12  -1.95193841770627E-16   9.19494309860909E-08   9.19462831419730E-08
     -6.22806451300747E-14  -4.50000000000000E+01  -4.50000000000000E+01   0.00000000000000E+00   2.27058406241166E-07
     -6.26423050289278E-15  -3.34965644915026E-07  -1.07907244938091E-07  -1.72408932589626E-13
      4.09462880496440E-09
      8.00000000000000E-01   8.00000000000000E-01   0.00000000000000E+00  -4.03809384441111E-13   1.38433341572919E-08
     -1.25300187643322E-12   1.38416773460310E-08   2.34633836591086E-13   0.00000000000000E+00   0.00000000000000E+00
      0.00000000000000E+00  -3.04975821957433E-12  -1.95132340190920E-16   8.12819512155131E-08   8.12789012621612E-08
     -6.22653335599438E-14  -4.50000000000000E+01  -4.50000000000000E+01   0.00000000000000E+00   2.21435793801221E-07
     -6.26331199906376E-15  -3.16556366146101E-07  -9.51205786081922E-08  -1.72368503031142E-13
      4.22975841570719E-09
      8.00000000000000E-01   8.00000000000000E-01   0.00000000000000E+00  -3.74448928344454E-13   1.24284639574097E-08
     -1.12173050260205E-12   1.24269677779788E-08   2.34594100751695E-13   0.00000000000000E+00   0.00000000000000E+00