DF-ISE text

Info {
  version   = 1.0
  type      = xyplot
  datasets  = [
    "time"
    "Ntop OuterVoltage" "Ntop InnerVoltage" "Ntop QuasiFermiPotential" "Ntop DisplacementCurrent" "Ntop eCurrent"
    "Ntop hCurrent" "Ntop TotalCurrent" "Ntop Charge" "Ptop OuterVoltage" "Ptop InnerVoltage"
    "Ptop QuasiFermiPotential" "Ptop DisplacementCurrent" "Ptop eCurrent" "Ptop hCurrent" "Ptop TotalCurrent"
    "Ptop Charge" "Pbot OuterVoltage" "Pbot InnerVoltage" "Pbot QuasiFermiPotential" "Pbot DisplacementCurrent"
    "Pbot eCurrent" "Pbot hCurrent" "Pbot TotalCurrent" "Pbot Charge" ]
  functions = [
    Time
    OuterVoltage InnerVoltage QuasiFermiPotential DisplacementCurrent eCurrent
    hCurrent TotalCurrent Charge OuterVoltage InnerVoltage
    QuasiFermiPotential DisplacementCurrent eCurrent hCurrent TotalCurrent
    Charge OuterVoltage InnerVoltage QuasiFermiPotential DisplacementCurrent
    eCurrent hCurrent TotalCurrent Charge ]
}

Data {
      5.00000000000000E-13
      8.00000000000000E-01   8.00000000000000E-01   0.00000000000000E+00   9.59560746484148E-15   7.92219701860575E-12
     -7.31577415293612E-12   6.16018473134468E-13   2.34224766837357E-13   0.00000000000000E+00   0.00000000000000E+00
      0.00000000000000E+00  -1.19716166517222E-13  -1.97157898428201E-16   1.75445406425397E-09   1.75433415092955E-09
     -6.21801123149315E-14  -4.50000000000000E+01  -4.50000000000000E+01   0.00000000000000E+00  -4.35978360594413E-13
      1.45896073602264E-11  -1.76910379840232E-09  -1.75495016940269E-09  -1.72044654522425E-13
      1.25000000000000E-12
      8.00000000000000E-01   8.00000000000000E-01   0.00000000000000E+00   1.11535280967713E-13   3.57816140289978E-11
     -3.37572288614130E-11   2.13592044855256E-12   2.34224766837762E-13   0.00000000000000E+00   0.00000000000000E+00
      0.00000000000000E+00  -2.84384577974693E-14  -1.97157898425678E-16   1.75562731361982E-09   1.75559867800412E-09
     -6.21801123142904E-14  -4.50000000000000E+01  -4.50000000000000E+01   0.00000000000000E+00  -2.49212894964368E-12
      6.73287074290326E-11  -1.82257117693206E-09  -1.75773459845267E-09  -1.72044654523471E-13
      2.37500000000000E-12
      8.00000000000000E-01   8.00000000000000E-01   0.00000000000000E+00   8.48972188507341E-13   2.98457360758227E-10
     -2.79310684765185E-10   1.99956481815493E-11   2.34224766843662E-13   0.00000000000000E+00   0.00000000000000E+00
      0.00000000000000E+00   1.12569444623776E-12  -1.97157898396981E-16   1.76975747855135E-09   1.77088297583969E-09
     -6.21801123046764E-14  -4.50000000000000E+01  -4.50000000000000E+01   0.00000000000000E+00  -2.70173521687120E-11
      5.56950817405940E-10  -2.32081208925847E-09  -1.79087862402124E-09  -1.72044654538985E-13
      4.06250000000000E-12
      8.00000000000000E-01   8.00000000000000E-01   0.00000000000000E+00   1.27433199582816E-11   4.63627204783165E-09
     -4.23720783083160E-09   4.11807536958329E-10   2.34224767016972E-13   0.00000000000000E+00   0.00000000000000E+00
      0.00000000000000E+00   1.63072848030797E-11  -1.97157897737963E-16   2.09651310470008E-09   2.11282019234526E-09
     -6.21801120137023E-14  -4.50000000000000E+01  -4.50000000000000E+01   0.00000000000000E+00  -5.70022261034933E-10
      8.44466276421179E-09  -1.03992682324805E-08  -2.52462772930360E-09  -1.72044655003269E-13
      6.59375000000000E-12
      8.00000000000000E-01   8.00000000000000E-01   0.00000000000000E+00   2.53821927790289E-10   9.65432037300057E-08
     -8.47967088634324E-08   1.20003167943636E-08   2.34224774402465E-13   0.00000000000000E+00   0.00000000000000E+00
      0.00000000000000E+00   3.28976016015245E-10  -1.97157877617609E-16   1.20648049300080E-08   1.23937807488653E-08
     -6.21800992783437E-14  -4.50000000000000E+01  -4.50000000000000E+01   0.00000000000000E+00  -1.67537792298650E-08
      1.68848889420958E-07  -1.76489207734322E-07  -2.43940975432289E-08  -1.72044675124121E-13
      1.03906250000000E-11
      8.00000000000000E-01   8.00000000000000E-01   0.00000000000000E+00   2.12113811787023E-09   8.65602132965329E-07
     -7.05782755346390E-07   1.61940515736809E-07   2.34224930991977E-13   0.00000000000000E+00   0.00000000000000E+00
      0.00000000000000E+00   2.72434865418329E-09  -1.97157612365472E-16   1.43266740830584E-07   1.45991089287609E-07
     -6.21798254207622E-14  -4.50000000000000E+01  -4.50000000000000E+01   0.00000000000000E+00  -2.26393453592930E-07
      1.40296282482999E-06  -1.48450097626148E-06  -3.07931605024418E-07  -1.72045105571214E-13
      1.60859375000000E-11
      8.00000000000000E-01   8.00000000000000E-01   0.00000000000000E+00   1.23855223367259E-09   7.74228691279971E-07
     -3.77679638277938E-07   3.97787605235706E-07   2.34225753144707E-13   0.00000000000000E+00   0.00000000000000E+00
      0.00000000000000E+00   1.27837523663593E-09  -1.97157210425391E-16   3.40869526933900E-07   3.42147901973378E-07
     -6.21784176190781E-14  -4.50000000000000E+01  -4.50000000000000E+01   0.00000000000000E+00  -5.43170362209182E-07
      7.39264966995668E-07  -9.36030111995572E-07  -7.39935507209086E-07  -1.72047335525629E-13
      2.46289062500000E-11
      8.00000000000000E-01   8.00000000000000E-01   0.00000000000000E+00   1.65222097844824E-10   5.29791727816049E-07
     -9.43396442763281E-09   5.20522985486261E-07   2.34227806022226E-13   0.00000000000000E+00   0.00000000000000E+00
      0.00000000000000E+00  -2.03002631472903E-10  -1.97157093464269E-16   3.96209236548581E-07   3.96006233719951E-07
     -6.21752181592409E-14  -4.50000000000000E+01  -4.50000000000000E+01   0.00000000000000E+00  -6.64027522624321E-07
      1.36984473153098E-09  -2.53871541313421E-07  -9.16529219206211E-07  -1.72052587862985E-13
      3.74433593750000E-11
      8.00000000000000E-01   8.00000000000000E-01   0.00000000000000E+00   1.20071461789026E-10   5.70966676990070E-07
     -7.95357449166709E-09   5.63133173960192E-07   2.34231444211630E-13   0.00000000000000E+00   0.00000000000000E+00
      0.00000000000000E+00  -1.53095892863912E-10  -1.97157172217789E-16   3.53887495998239E-07   3.53734399908218E-07
     -6.21704472204567E-14  -4.50000000000000E+01  -4.50000000000000E+01   0.00000000000000E+00  -6.48335417402946E-07
     -6.25621907993877E-15  -2.68532150209244E-07  -9.16867573868409E-07  -1.72060996991173E-13
      5.66650390625000E-11
      8.00000000000000E-01   8.00000000000000E-01   0.00000000000000E+00   8.20011372707426E-11   6.14281237893321E-07
     -6.88778958483752E-09   6.07475449445754E-07   2.34237399444163E-13   0.00000000000000E+00   0.00000000000000E+00
      0.00000000000000E+00  -1.10219148782940E-10  -1.97157259824483E-16   3.06173180396638E-07   3.06062961050698E-07
     -6.21641634168895E-14  -4.50000000000000E+01  -4.50000000000000E+01   0.00000000000000E+00  -6.25332029786915E-07
     -6.25659666803048E-15  -2.88206374452938E-07  -9.13538410496450E-07  -1.72073236027273E-13
      8.54975585937500E-11
      8.00000000000000E-01   8.00000000000000E-01   0.00000000000000E+00   4.90219708470091E-11   6.54832747470833E-07
     -5.54911671022747E-09   6.49332652731453E-07   2.34246975414323E-13   0.00000000000000E+00   0.00000000000000E+00
      0.00000000000000E+00  -7.25084674252931E-11  -1.97157348494648E-16   2.56722983871095E-07   2.56650475206512E-07
     -6.21561490551495E-14  -4.50000000000000E+01  -4.50000000000000E+01   0.00000000000000E+00  -5.95282552095679E-07
     -6.25699503283180E-15  -3.10700569585290E-07  -9.05983127937964E-07  -1.72090826359172E-13
      1.28746337890625E-10
      8.00000000000000E-01   8.00000000000000E-01   0.00000000000000E+00   2.26146052251277E-11   6.85954513403727E-07
     -4.01077446397891E-09   6.81966353544973E-07   2.34261979697487E-13   0.00000000000000E+00   0.00000000000000E+00
      0.00000000000000E+00  -4.20743886302344E-11  -1.97157427327607E-16   2.10395105888042E-07   2.10353031302255E-07
     -6.21462117679328E-14  -4.50000000000000E+01  -4.50000000000000E+01   0.00000000000000E+00  -5.58887512422321E-07
     -6.25756089235770E-15  -3.33431866167347E-07  -8.92319384847229E-07  -1.72115767929553E-13
      1.61182922363281E-10
      8.00000000000000E-01   8.00000000000000E-01   0.00000000000000E+00   1.17805422736677E-11   6.96013993085633E-07
     -3.14737557946693E-09   6.92878398048440E-07   2.34273379621400E-13   0.00000000000000E+00   0.00000000000000E+00
      0.00000000000000E+00  -2.97676393213433E-11  -1.97157460773848E-16   1.88412422334795E-07   1.88382654498316E-07
     -6.21398454940813E-14  -4.50000000000000E+01  -4.50000000000000E+01   0.00000000000000E+00  -5.36860149224691E-07
     -6.25796448971394E-15  -3.44400897064102E-07  -8.81261052546758E-07  -1.72133534127319E-13
      2.09837799072266E-10
      8.00000000000000E-01   8.00000000000000E-01   0.00000000000000E+00   2.65136702922772E-12   7.00470034770146E-07
     -2.18882559899381E-09   6.98283860538181E-07   2.34290358868948E-13   0.00000000000000E+00   0.00000000000000E+00
      0.00000000000000E+00  -1.97533437451067E-11  -1.97157488428622E-16   1.65777342454127E-07   1.65757588913224E-07
     -6.21313833912370E-14  -4.50000000000000E+01  -4.50000000000000E+01   0.00000000000000E+00  -5.09385219151480E-07
     -6.25854286840347E-15  -3.54656224041384E-07  -8.64041449451407E-07  -1.72158975477710E-13
      2.46328956604004E-10
      8.00000000000000E-01   8.00000000000000E-01   0.00000000000000E+00  -8.31059378169631E-13   6.99152002685219E-07
     -1.67084896470863E-09   6.97480322661132E-07   2.34302904760659E-13   0.00000000000000E+00   0.00000000000000E+00
      0.00000000000000E+00  -1.61608236529584E-11  -1.97157498361259E-16   1.53352641831342E-07   1.53336480810531E-07
     -6.21256648172597E-14  -4.50000000000000E+01  -4.50000000000000E+01   0.00000000000000E+00  -4.91816922678122E-07
     -6.25895829586501E-15  -3.58999874534584E-07  -8.50816803471664E-07  -1.72177239943400E-13
      3.01065692901611E-10
      8.00000000000000E-01   8.00000000000000E-01   0.00000000000000E+00  -3.30960511332514E-12   6.94059305103234E-07
     -1.11654258581466E-09   6.92939452912306E-07   2.34321362667421E-13   0.00000000000000E+00   0.00000000000000E+00
      0.00000000000000E+00  -1.38512493652144E-11  -1.97157504864041E-16   1.37794053075846E-07   1.37780201629323E-07
     -6.21178485392683E-14  -4.50000000000000E+01  -4.50000000000000E+01   0.00000000000000E+00  -4.68441340713382E-07
     -6.25955606645053E-15  -3.62278307568688E-07  -8.30719654541626E-07  -1.72203514128153E-13
      3.42118245124817E-10
      8.00000000000000E-01   8.00000000000000E-01   0.00000000000000E+00  -3.91722682506607E-12   6.89288572314315E-07
     -8.29009797936688E-10   6.88455645289553E-07   2.34334933990731E-13   0.00000000000000E+00   0.00000000000000E+00
      0.00000000000000E+00  -1.34804434930574E-11  -1.97157506724560E-16   1.27101768542919E-07   1.27088287902268E-07
     -6.21125186099185E-14  -4.50000000000000E+01  -4.50000000000000E+01   0.00000000000000E+00  -4.52474593284786E-07
     -6.25998616333748E-15  -3.63069333647048E-07  -8.15543933191821E-07  -1.72222415380812E-13
      4.03697073459625E-10
      8.00000000000000E-01   8.00000000000000E-01   0.00000000000000E+00  -3.89763979626940E-12   6.82254047205891E-07
     -5.33110918386925E-10   6.81717038647708E-07   2.34354922823783E-13   0.00000000000000E+00   0.00000000000000E+00
      0.00000000000000E+00  -1.38819631261184E-11  -1.97157509485534E-16   1.11042890818012E-07   1.11029008657729E-07
     -6.21053400399963E-14  -4.50000000000000E+01  -4.50000000000000E+01   0.00000000000000E+00  -4.30003837884074E-07
     -6.26060439047228E-15  -3.62742203160757E-07  -7.92746047305435E-07  -1.72249582783786E-13
      4.49881194710732E-10
      8.00000000000000E-01   8.00000000000000E-01   0.00000000000000E+00  -3.50728093297724E-12   6.77564187287199E-07
     -3.86164133773724E-10   6.77174515872493E-07   2.34369681649169E-13   0.00000000000000E+00   0.00000000000000E+00
      0.00000000000000E+00  -1.45425357938042E-11  -1.97157513470310E-16   9.85102222359509E-08   9.84956795029996E-08
     -6.21006120079545E-14  -4.50000000000000E+01  -4.50000000000000E+01   0.00000000000000E+00  -4.13913511516964E-07
     -6.26104783873140E-15  -3.61756677597480E-07  -7.75670195375492E-07  -1.72269069641213E-13
      5.19157376587391E-10
      8.00000000000000E-01   8.00000000000000E-01   0.00000000000000E+00  -2.72337213123352E-12   6.71878705364978E-07
     -2.40937492312305E-10   6.71635044500535E-07   2.34391567002206E-13   0.00000000000000E+00   0.00000000000000E+00
      0.00000000000000E+00  -1.56762740761160E-11  -1.97157525028044E-16   7.85286213541422E-08   7.85129448829085E-08
     -6.20946362487329E-14  -4.50000000000000E+01  -4.50000000000000E+01   0.00000000000000E+00  -3.90492053498047E-07
     -6.26168182246878E-15  -3.59655929623715E-07  -7.50147989383444E-07  -1.72296930753475E-13
      5.71114512994885E-10
      8.00000000000000E-01   8.00000000000000E-01   0.00000000000000E+00  -2.10356056059305E-12   6.68714754972837E-07
     -1.71954088697875E-10   6.68540697323578E-07   2.34407855889920E-13   0.00000000000000E+00   0.00000000000000E+00
      0.00000000000000E+00  -1.65022896878983E-11  -1.97157539017468E-16   6.25718816316744E-08   6.25553791448290E-08
     -6.20910834337028E-14  -4.50000000000000E+01  -4.50000000000000E+01   0.00000000000000E+00  -3.73300338555293E-07
     -6.26213328962165E-15  -3.57795731650982E-07  -7.31096076468408E-07  -1.72316772456217E-13
      6.49050217606127E-10
      8.00000000000000E-01   8.00000000000000E-01   0.00000000000000E+00  -1.25159964132330E-12   6.65597578064232E-07
     -1.06379360933769E-10   6.65489947103657E-07   2.34432225330359E-13   0.00000000000000E+00   0.00000000000000E+00
      0.00000000000000E+00  -1.75957548544223E-11  -1.97157569536558E-16   3.72045581640952E-08   3.71869622120833E-08
     -6.20873510039101E-14  -4.50000000000000E+01  -4.50000000000000E+01   0.00000000000000E+00  -3.47886090873273E-07
     -6.26277264125231E-15  -3.54790812179697E-07  -7.02676909315743E-07  -1.72344874326448E-13
      7.07501996064559E-10
      8.00000000000000E-01   8.00000000000000E-01   0.00000000000000E+00  -7.06464207119116E-13   6.64381780429224E-07
     -7.64703167658412E-11   6.64304603648251E-07   2.34450528092249E-13   0.00000000000000E+00   0.00000000000000E+00
      0.00000000000000E+00  -1.82678476481493E-11  -1.97157600047313E-16   1.72029695121052E-08   1.71847014672994E-08
     -6.20858703698056E-14  -4.50000000000000E+01  -4.50000000000000E+01   0.00000000000000E+00  -3.29040118143444E-07
     -6.26322268896653E-15  -3.52449180708881E-07  -6.81489305115547E-07  -1.72364657722444E-13
      7.95179663752206E-10
      8.00000000000000E-01   8.00000000000000E-01   0.00000000000000E+00  -6.56409129074138E-14   6.63975705923674E-07
     -4.88904125185465E-11   6.63926749870242E-07   2.34478153393140E-13   0.00000000000000E+00   0.00000000000000E+00
      0.00000000000000E+00  -1.90300307897575E-11  -1.97157656922992E-16  -1.40012510567648E-08  -1.40202812847122E-08
     -6.20858754886151E-14  -4.50000000000000E+01  -4.50000000000000E+01   0.00000000000000E+00  -3.01021912413846E-07
     -6.26385094178340E-15  -3.48884549907834E-07  -6.49906468585531E-07  -1.72392277904524E-13
      9.26696165283676E-10
      8.00000000000000E-01   8.00000000000000E-01   0.00000000000000E+00   4.77435814041107E-13   6.65498000840819E-07
     -2.81684272908915E-11   6.65470309849342E-07   2.34520211664396E-13   0.00000000000000E+00   0.00000000000000E+00
      0.00000000000000E+00  -1.95977080640692E-11  -1.97157753683772E-16  -6.24935041282639E-08  -6.25131020334858E-08
     -6.20910811003195E-14  -4.50000000000000E+01  -4.50000000000000E+01   0.00000000000000E+00  -2.59446315359418E-07
     -6.26468906533770E-15  -3.43510886191750E-07  -6.02957207815857E-07  -1.72429130564076E-13
      1.02533354143228E-09
      8.00000000000000E-01   8.00000000000000E-01   0.00000000000000E+00   5.20506552739439E-13   6.67395783492189E-07
     -2.06742490741924E-11   6.67375629749668E-07   2.34552359155810E-13   0.00000000000000E+00   0.00000000000000E+00
      0.00000000000000E+00  -1.95269911576772E-11  -1.97157806750034E-16  -9.92909831799051E-08  -9.93105103682206E-08
     -6.20991611190577E-14  -4.50000000000000E+01  -4.50000000000000E+01   0.00000000000000E+00  -2.28574007165423E-07
     -6.26523634169747E-15  -3.39491105950786E-07  -5.68065119381446E-07  -1.72453198036752E-13
      1.17328960565518E-09
      8.00000000000000E-01   8.00000000000000E-01   0.00000000000000E+00  -2.05350944798496E-13   6.69072613449154E-07
     -1.45722912989930E-11   6.69057835806910E-07   2.34601543855423E-13   0.00000000000000E+00   0.00000000000000E+00
      0.00000000000000E+00  -1.83487902122125E-11  -1.97157685595531E-16  -1.52806759570218E-07  -1.52825108557588E-07
     -6.21179217308751E-14  -4.50000000000000E+01  -4.50000000000000E+01   0.00000000000000E+00  -1.82733435168360E-07
     -6.26592808198633E-15  -3.33499285815036E-07  -5.16232727249323E-07  -1.72483622124549E-13
      1.28425665382236E-09
      8.00000000000000E-01   8.00000000000000E-01   0.00000000000000E+00  -1.58385532223259E-12   6.67262319245166E-07
     -1.19995222035860E-11   6.67248735867641E-07   2.34638960861779E-13   0.00000000000000E+00   0.00000000000000E+00
      0.00000000000000E+00  -1.62986217672017E-11  -1.97157171413287E-16  -1.89445805599578E-07  -1.89462104418503E-07
     -6.21369486871292E-14  -4.50000000000000E+01  -4.50000000000000E+01   0.00000000000000E+00  -1.48749392841242E-07
     -6.26634617578500E-15  -3.29037232341550E-07  -4.77786631449138E-07  -1.72502012174651E-13
      1.36748193994775E-09
      8.00000000000000E-01   8.00000000000000E-01   0.00000000000000E+00  -3.24716589396811E-12   6.62603585090372E-07
     -1.06135198794262E-11   6.62589724404599E-07   2.34667050559308E-13   0.00000000000000E+00   0.00000000000000E+00
      0.00000000000000E+00  -1.39015651493147E-11  -1.97156270431313E-16  -2.13337571749991E-07  -2.13351473512297E-07
     -6.21537091033590E-14  -4.50000000000000E+01  -4.50000000000000E+01   0.00000000000000E+00  -1.23529092720603E-07
     -6.26660373994234E-15  -3.25709151905095E-07  -4.49238250892302E-07  -1.72513341455948E-13
      1.49231986913582E-09
      8.00000000000000E-01   8.00000000000000E-01   0.00000000000000E+00  -6.79933797915875E-12   6.47328598501560E-07
     -9.03190889581301E-12   6.47312767254685E-07   2.34708465893829E-13   0.00000000000000E+00   0.00000000000000E+00
      0.00000000000000E+00  -8.75391381222013E-12  -1.97153284537521E-16  -2.40257389019842E-07  -2.40266143130807E-07
     -6.21820318406502E-14  -4.50000000000000E+01  -4.50000000000000E+01   0.00000000000000E+00  -8.62993059109000E-08
     -6.26690140469582E-15  -3.20747311946074E-07  -4.07046624123875E-07  -1.72526434053180E-13
      1.58594831602688E-09
      8.00000000000000E-01   8.00000000000000E-01   0.00000000000000E+00  -1.02116542771660E-11   6.27402577488855E-07
     -8.10602687353285E-12   6.27384259807704E-07   2.34738248369413E-13   0.00000000000000E+00   0.00000000000000E+00
      0.00000000000000E+00  -3.75353244464321E-12  -1.97148937510765E-16  -2.51283860779683E-07  -2.51287614509277E-07
     -6.22050130012213E-14  -4.50000000000000E+01  -4.50000000000000E+01   0.00000000000000E+00  -5.90462838240361E-08
     -6.26705605988700E-15  -3.17050355207336E-07  -3.76096645298428E-07  -1.72533235368192E-13
      1.72639098636346E-09
      8.00000000000000E-01   8.00000000000000E-01   0.00000000000000E+00  -1.58827681545422E-11   5.81065279211555E-07
     -6.97921377771249E-12   5.81042417229622E-07   2.34778967815462E-13   0.00000000000000E+00   0.00000000000000E+00
      0.00000000000000E+00   4.81275489568066E-12  -1.97136543458292E-16  -2.49621712123041E-07  -2.49616899565282E-07
     -6.22402054522809E-14  -4.50000000000000E+01  -4.50000000000000E+01   0.00000000000000E+00  -1.98787264755554E-08
     -6.26718180966701E-15  -3.11546784921604E-07  -3.31425517664341E-07  -1.72538762363181E-13
      1.83172298911590E-09
      8.00000000000000E-01   8.00000000000000E-01   0.00000000000000E+00  -1.98928993575027E-11   5.33145639917851E-07
     -6.28397918737585E-12   5.33119463039306E-07   2.34804999874677E-13   0.00000000000000E+00   0.00000000000000E+00
      0.00000000000000E+00   1.12094490137945E-11  -1.97120479605294E-16  -2.33273027390307E-07  -2.33261818138414E-07
     -6.22655996828516E-14  -4.50000000000000E+01  -4.50000000000000E+01   0.00000000000000E+00   7.59671889844424E-09
     -6.26719642673501E-15  -3.07454357532139E-07  -2.99857644900891E-07  -1.72539400191825E-13
      1.98972099324456E-09
      8.00000000000000E-01   8.00000000000000E-01   0.00000000000000E+00  -2.40043056288614E-11   4.44421022918121E-07
     -5.41076953049326E-12   4.44391607842962E-07   2.34834107759288E-13   0.00000000000000E+00   0.00000000000000E+00
      0.00000000000000E+00   1.87126347510294E-11  -1.97080397417202E-16  -1.87534912331401E-07  -1.87516199893731E-07
     -6.22988631904418E-14  -4.50000000000000E+01  -4.50000000000000E+01   0.00000000000000E+00   4.45040014539203E-08
     -6.26710219248380E-15  -3.01379403136050E-07  -2.56875407949232E-07  -1.72535244568848E-13
      2.10821949634105E-09
      8.00000000000000E-01   8.00000000000000E-01   0.00000000000000E+00  -2.49132864260400E-11   3.70373269470622E-07
     -4.86097025195255E-12   3.70343495213944E-07   2.34846880718362E-13   0.00000000000000E+00   0.00000000000000E+00
      0.00000000000000E+00   2.16816452255077E-11  -1.97034617033305E-16  -1.41586570485976E-07  -1.41564889037785E-07
     -6.23183273063265E-14  -4.50000000000000E+01  -4.50000000000000E+01   0.00000000000000E+00   6.81004852533868E-08
     -6.26695029744171E-15  -2.96879085162596E-07  -2.28778606176159E-07  -1.72528553412036E-13
      2.28596725098579E-09
      8.00000000000000E-01   8.00000000000000E-01   0.00000000000000E+00  -2.26655437092876E-11   2.61953930081394E-07
     -4.16414800489106E-12   2.61927100389679E-07   2.34850772411950E-13   0.00000000000000E+00   0.00000000000000E+00
      0.00000000000000E+00   2.13610829696367E-11  -1.96936986190059E-16  -6.79473335477199E-08  -6.79259726616872E-08
     -6.23368902088428E-14  -4.50000000000000E+01  -4.50000000000000E+01   0.00000000000000E+00   9.62315863876504E-08
     -6.26661713515586E-15  -2.90232707849026E-07  -1.94001127727992E-07  -1.72513882203106E-13
      2.41927806696935E-09
      8.00000000000000E-01   8.00000000000000E-01   0.00000000000000E+00  -1.89219140058247E-11   1.91164801463251E-07
     -3.72288479689381E-12   1.91142156664449E-07   2.34842560169105E-13   0.00000000000000E+00   0.00000000000000E+00
      0.00000000000000E+00   1.81751934215672E-11  -1.96841831035991E-16  -1.76316723079188E-08  -1.76134973113391E-08
     -6.23425701374838E-14  -4.50000000000000E+01  -4.50000000000000E+01   0.00000000000000E+00   1.11809920191931E-07
     -6.26630160158712E-15  -2.85338573278739E-07  -1.73528659353109E-07  -1.72499990031622E-13
      2.61924429094468E-09
      8.00000000000000E-01   8.00000000000000E-01   0.00000000000000E+00  -1.24006575558039E-11   1.11336921585270E-07
     -3.16056344012203E-12   1.11321360364274E-07   2.34816297777152E-13   0.00000000000000E+00   0.00000000000000E+00
      0.00000000000000E+00   1.15442729938620E-11  -1.96673776767569E-16   3.88913961898737E-08   3.89029402661938E-08
     -6.23403406140916E-14  -4.50000000000000E+01  -4.50000000000000E+01   0.00000000000000E+00   1.27925285153563E-07
     -6.26575565774275E-15  -2.78149579518276E-07  -1.50224300630468E-07  -1.72475957163061E-13
      2.76921895892618E-09
      8.00000000000000E-01   8.00000000000000E-01   0.00000000000000E+00  -8.07911559655859E-12   7.22192482548717E-08
     -2.80186557968482E-12   7.22083672736955E-08   2.34788775422112E-13   0.00000000000000E+00   0.00000000000000E+00
      0.00000000000000E+00   6.80979059091738E-12  -1.96538419441507E-16   6.48678716768555E-08   6.48746812709080E-08
     -6.23326102407518E-14  -4.50000000000000E+01  -4.50000000000000E+01   0.00000000000000E+00   1.35779303949533E-07
     -6.26530599006151E-15  -2.72862346228831E-07  -1.37083048544603E-07  -1.72456165181360E-13
      2.88169995991231E-09
      8.00000000000000E-01   8.00000000000000E-01   0.00000000000000E+00  -5.60601923992514E-12   5.25479693214528E-08
     -2.56147636091046E-12   5.25398018258519E-08   2.34765410149390E-13   0.00000000000000E+00   0.00000000000000E+00
      0.00000000000000E+00   3.97256578334974E-12  -1.96438229960415E-16   7.62809203727759E-08   7.62848927421211E-08
     -6.23247658695354E-14  -4.50000000000000E+01  -4.50000000000000E+01   0.00000000000000E+00   1.40106573442168E-07
     -6.26495332649260E-15  -2.68931261745187E-07  -1.28824694567973E-07  -1.72440644279857E-13
      2.96606071065190E-09
      8.00000000000000E-01   8.00000000000000E-01   0.00000000000000E+00  -4.17424627999282E-12   4.19756446018476E-08
     -2.39515071094748E-12   4.19690752048567E-08   2.34746923798567E-13   0.00000000000000E+00   0.00000000000000E+00
      0.00000000000000E+00   2.31556896018050E-12  -1.96366287985198E-16   8.12631160645303E-08   8.12654314371242E-08
     -6.23182119553346E-14  -4.50000000000000E+01  -4.50000000000000E+01   0.00000000000000E+00   1.42748091795925E-07
     -6.26468218116513E-15  -2.65982592173223E-07  -1.23234506641981E-07  -1.72428711843233E-13
      3.09260183676129E-09
      8.00000000000000E-01   8.00000000000000E-01   0.00000000000000E+00  -2.63147707875420E-12   3.09567930637115E-08
     -2.16555617941352E-12   3.09519960304533E-08   2.34718298344664E-13   0.00000000000000E+00   0.00000000000000E+00
      0.00000000000000E+00   5.02084668106576E-13  -1.96266253929135E-16   8.45311841163341E-08   8.45316860047359E-08
     -6.23078612652669E-14  -4.50000000000000E+01  -4.50000000000000E+01   0.00000000000000E+00   1.46027166447307E-07
     -6.26426688818786E-15  -2.61510842218229E-07  -1.15483682035189E-07  -1.72410437079395E-13
      3.28241352592538E-09
      8.00000000000000E-01   8.00000000000000E-01   0.00000000000000E+00  -1.31164828884801E-12   2.14355425024158E-08
     -1.86071736538208E-12   2.14323701367616E-08   2.34674504167713E-13   0.00000000000000E+00   0.00000000000000E+00
      0.00000000000000E+00  -1.06657444304251E-12  -1.96137605807267E-16   8.32878775516310E-08   8.32868107810503E-08
     -6.22921519337777E-14  -4.50000000000000E+01  -4.50000000000000E+01   0.00000000000000E+00   1.49789418340234E-07
     -6.26362860047831E-15  -2.54508592994418E-07  -1.04719180917812E-07  -1.72382352233937E-13
      3.42477229279844E-09
      8.00000000000000E-01   8.00000000000000E-01   0.00000000000000E+00  -8.24017855075202E-13   1.74991200994067E-08
     -1.65972103923049E-12   1.74966363605124E-08   2.34641640034787E-13   0.00000000000000E+00   0.00000000000000E+00
      0.00000000000000E+00  -1.64221629524831E-12  -1.96058718382612E-16   7.95461343565150E-08   7.95444919441611E-08
     -6.22807585052093E-14  -4.50000000000000E+01  -4.50000000000000E+01   0.00000000000000E+00   1.51790259649381E-07
     -6.26314058798982E-15  -2.48831381690914E-07  -9.70411283046733E-08  -1.72360881529578E-13
      3.63831044310804E-09
      8.00000000000000E-01   8.00000000000000E-01   0.00000000000000E+00  -4.80456425207162E-13   1.38925889430438E-08
     -1.39664246517273E-12   1.38907118441534E-08   2.34593178438116E-13   0.00000000000000E+00   0.00000000000000E+00
      0.00000000000000E+00  -2.01294975601599E-12  -1.95965953095234E-16   7.20147428601754E-08   7.20127297144535E-08
     -6.22648845428068E-14  -4.50000000000000E+01  -4.50000000000000E+01   0.00000000000000E+00   1.53244721698560E-07
     -6.26239983132540E-15  -2.39148156994768E-07  -8.59034415586072E-08  -1.72328293895310E-13
      3.79846405584023E-09
      8.00000000000000E-01   8.00000000000000E-01   0.00000000000000E+00  -3.72622517872751E-13   1.20878510701005E-08
     -1.22625601252817E-12   1.20862521915701E-08   2.34557874969887E-13   0.00000000000000E+00   0.00000000000000E+00
      0.00000000000000E+00  -2.08161626431481E-12  -1.95913313428970E-16   6.57381881105546E-08   6.57361062983770E-08
     -6.22540999003791E-14  -4.50000000000000E+01  -4.50000000000000E+01   0.00000000000000E+00   1.52818106687128E-07
     -6.26184244192238E-15  -2.30640458915232E-07  -7.78223584899470E-08  -1.72303775069508E-13
      4.03869447493853E-09
      8.00000000000000E-01   8.00000000000000E-01   0.00000000000000E+00  -2.93631093244060E-13   9.96809321207326E-09
     -1.00771433444866E-12   9.96679186664556E-09   2.34507295971145E-13   0.00000000000000E+00   0.00000000000000E+00
      0.00000000000000E+00  -2.04154807328863E-12  -1.95854856214296E-16   5.62583831345230E-08   5.62563413905949E-08
     -6.22398283237557E-14  -4.50000000000000E+01  -4.50000000000000E+01   0.00000000000000E+00   1.49112951912409E-07
     -6.26101699510059E-15  -2.15336078908632E-07  -6.62231332572403E-08  -1.72267467647390E-13
      4.21886728926225E-09
      8.00000000000000E-01   8.00000000000000E-01   0.00000000000000E+00  -2.59667843926848E-13   8.63886208395588E-09
     -8.69318021214225E-13   8.63773309809074E-09   2.34471676544160E-13   0.00000000000000E+00   0.00000000000000E+00
      0.00000000000000E+00  -1.94381906680594E-12  -1.95823597004771E-16   4.94002553132941E-08   4.93983112984037E-08
     -6.22306025087719E-14  -4.50000000000000E+01  -4.50000000000000E+01   0.00000000000000E+00   1.43666281952893E-07
     -6.26041689058463E-15  -2.01702320088971E-07  -5.80360443964944E-08  -1.72241074035389E-13
      4.48912651074783E-09
      8.00000000000000E-01   8.00000000000000E-01   0.00000000000000E+00  -2.20220331128946E-13   6.91241007657079E-09
     -6.95854805054465E-13   6.91149400143461E-09   2.34422855029719E-13   0.00000000000000E+00   0.00000000000000E+00