DF-ISE text

Info {
  version   = 1.0
  type      = xyplot
  datasets  = [
    "time"
    "Ntop OuterVoltage" "Ntop InnerVoltage" "Ntop QuasiFermiPotential" "Ntop DisplacementCurrent" "Ntop eCurrent"
    "Ntop hCurrent" "Ntop TotalCurrent" "Ntop Charge" "Ptop OuterVoltage" "Ptop InnerVoltage"
    "Ptop QuasiFermiPotential" "Ptop DisplacementCurrent" "Ptop eCurrent" "Ptop hCurrent" "Ptop TotalCurrent"
    "Ptop Charge" "Pbot OuterVoltage" "Pbot InnerVoltage" "Pbot QuasiFermiPotential" "Pbot DisplacementCurrent"
    "Pbot eCurrent" "Pbot hCurrent" "Pbot TotalCurrent" "Pbot Charge" ]
  functions = [
    Time
    OuterVoltage InnerVoltage QuasiFermiPotential DisplacementCurrent eCurrent
    hCurrent TotalCurrent Charge OuterVoltage InnerVoltage
    QuasiFermiPotential DisplacementCurrent eCurrent hCurrent TotalCurrent
    Charge OuterVoltage InnerVoltage QuasiFermiPotential DisplacementCurrent
    eCurrent hCurrent TotalCurrent Charge ]
}

Data {
      5.00000000000000E-13
      8.00000000000000E-01   8.00000000000000E-01   0.00000000000000E+00   9.59560746484148E-15   7.92219701860575E-12
     -7.31577415293612E-12   6.16018473134468E-13   2.34224766837357E-13   0.00000000000000E+00   0.00000000000000E+00
      0.00000000000000E+00  -1.19716166517222E-13  -1.97157898428201E-16   1.75445406425397E-09   1.75433415092955E-09
     -6.21801123149315E-14  -4.50000000000000E+01  -4.50000000000000E+01   0.00000000000000E+00  -4.35978360594413E-13
      1.45896073602264E-11  -1.76910379840232E-09  -1.75495016940269E-09  -1.72044654522425E-13
      1.25000000000000E-12
      8.00000000000000E-01   8.00000000000000E-01   0.00000000000000E+00   1.11535280967713E-13   3.57816140289978E-11
     -3.37572288614130E-11   2.13592044855256E-12   2.34224766837762E-13   0.00000000000000E+00   0.00000000000000E+00
      0.00000000000000E+00  -2.84384577974693E-14  -1.97157898425678E-16   1.75562731361982E-09   1.75559867800412E-09
     -6.21801123142904E-14  -4.50000000000000E+01  -4.50000000000000E+01   0.00000000000000E+00  -2.49212894964368E-12
      6.73287074290326E-11  -1.82257117693206E-09  -1.75773459845267E-09  -1.72044654523471E-13
      2.37500000000000E-12
      8.00000000000000E-01   8.00000000000000E-01   0.00000000000000E+00   8.48972188507169E-13   2.98457360758227E-10
     -2.79310684765185E-10   1.99956481815493E-11   2.34224766843662E-13   0.00000000000000E+00   0.00000000000000E+00
      0.00000000000000E+00   1.12569444623776E-12  -1.97157898396981E-16   1.76975747855135E-09   1.77088297583969E-09
     -6.21801123046764E-14  -4.50000000000000E+01  -4.50000000000000E+01   0.00000000000000E+00  -2.70173521687120E-11
      5.56950817405940E-10  -2.32081208925847E-09  -1.79087862402124E-09  -1.72044654538985E-13
      4.06250000000000E-12
      8.00000000000000E-01   8.00000000000000E-01   0.00000000000000E+00   1.27433199940961E-11   4.63627204783166E-09
     -4.23720783083160E-09   4.11807536994149E-10   2.34224767016972E-13   0.00000000000000E+00   0.00000000000000E+00
      0.00000000000000E+00   1.63072850389666E-11  -1.97157897737963E-16   2.09651310442838E-09   2.11282019230945E-09
     -6.21801120137023E-14  -4.50000000000000E+01  -4.50000000000000E+01   0.00000000000000E+00  -5.70022261034933E-10
      8.44466276421179E-09  -1.03992682324805E-08  -2.52462772930360E-09  -1.72044655003269E-13
      6.59375000000000E-12
      8.00000000000000E-01   8.00000000000000E-01   0.00000000000000E+00   2.53821913213994E-10   9.65432037458930E-08
     -8.47967088634324E-08   1.20003167956745E-08   2.34224774402465E-13   0.00000000000000E+00   0.00000000000000E+00
      0.00000000000000E+00   3.28976126500319E-10  -1.97157877617609E-16   1.20648048182119E-08   1.23937807475544E-08
     -6.21800992783437E-14  -4.50000000000000E+01  -4.50000000000000E+01   0.00000000000000E+00  -1.67537792298650E-08
      1.68848889420958E-07  -1.76489207734322E-07  -2.43940975432289E-08  -1.72044675124121E-13
      1.03906250000000E-11
      8.00000000000000E-01   8.00000000000000E-01   0.00000000000000E+00   2.12113812359992E-09   8.65602132982306E-07
     -7.05782755346390E-07   1.61940515759516E-07   2.34224930991977E-13   0.00000000000000E+00   0.00000000000000E+00
      0.00000000000000E+00   2.72434872092225E-09  -1.97157612365472E-16   1.43266740763059E-07   1.45991089286824E-07
     -6.21798254207622E-14  -4.50000000000000E+01  -4.50000000000000E+01   0.00000000000000E+00  -2.26393453614852E-07
      1.40296282482999E-06  -1.48450097626148E-06  -3.07931605046341E-07  -1.72045105571214E-13
      1.60859375000000E-11
      8.00000000000000E-01   8.00000000000000E-01   0.00000000000000E+00   1.23855224641796E-09   7.74228691290171E-07
     -3.77679638277937E-07   3.97787605258652E-07   2.34225753144707E-13   0.00000000000000E+00   0.00000000000000E+00
      0.00000000000000E+00   1.27837525946379E-09  -1.97157210425391E-16   3.40869526896996E-07   3.42147901959303E-07
     -6.21784176190781E-14  -4.50000000000000E+01  -4.50000000000000E+01   0.00000000000000E+00  -5.43170362218050E-07
      7.39264966995668E-07  -9.36030111995572E-07  -7.39935507217954E-07  -1.72047335525629E-13
      2.46289062500000E-11
      8.00000000000000E-01   8.00000000000000E-01   0.00000000000000E+00   1.65222113691238E-10   5.29791727816813E-07
     -9.43396442763343E-09   5.20522985502871E-07   2.34227806022227E-13   0.00000000000000E+00   0.00000000000000E+00
      0.00000000000000E+00  -2.03002675830865E-10  -1.97157093464269E-16   3.96209236584723E-07   3.96006233711735E-07
     -6.21752181592408E-14  -4.50000000000000E+01  -4.50000000000000E+01   0.00000000000000E+00  -6.64027522632716E-07
      1.36984473153098E-09  -2.53871541313421E-07  -9.16529219214605E-07  -1.72052587862985E-13
      3.74433593750000E-11
      8.00000000000000E-01   8.00000000000000E-01   0.00000000000000E+00   1.20071468948560E-10   5.70966676984740E-07
     -7.95357449166710E-09   5.63133173962022E-07   2.34231444211630E-13   0.00000000000000E+00   0.00000000000000E+00
      0.00000000000000E+00  -1.53095813912402E-10  -1.97157172217789E-16   3.53887495917457E-07   3.53734399906388E-07
     -6.21704472204566E-14  -4.50000000000000E+01  -4.50000000000000E+01   0.00000000000000E+00  -6.48335417402946E-07
     -6.25621907993877E-15  -2.68532150209244E-07  -9.16867573868409E-07  -1.72060996991173E-13
      5.66650390625000E-11
      8.00000000000000E-01   8.00000000000000E-01   0.00000000000000E+00   8.20011301254886E-11   6.14281237896583E-07
     -6.88778958483740E-09   6.07475449441871E-07   2.34237399444163E-13   0.00000000000000E+00   0.00000000000000E+00
      0.00000000000000E+00  -1.10219099574255E-10  -1.97157259824483E-16   3.06173180351302E-07   3.06062961054570E-07
     -6.21641634168894E-14  -4.50000000000000E+01  -4.50000000000000E+01   0.00000000000000E+00  -6.25332029786904E-07
     -6.25659666803048E-15  -2.88206374452938E-07  -9.13538410496439E-07  -1.72073236027273E-13
      8.54975585937500E-11
      8.00000000000000E-01   8.00000000000000E-01   0.00000000000000E+00   4.90219666502873E-11   6.54832747472383E-07
     -5.54911671022761E-09   6.49332652728806E-07   2.34246975414323E-13   0.00000000000000E+00   0.00000000000000E+00
      0.00000000000000E+00  -7.25085102728809E-11  -1.97157348494648E-16   2.56722983915197E-07   2.56650475207767E-07
     -6.21561490551494E-14  -4.50000000000000E+01  -4.50000000000000E+01   0.00000000000000E+00  -5.95282552094287E-07
     -6.25699503283180E-15  -3.10700569585290E-07  -9.05983127936572E-07  -1.72090826359172E-13
      1.28746337890625E-10
      8.00000000000000E-01   8.00000000000000E-01   0.00000000000000E+00   2.26146045187487E-11   6.85954513403934E-07
     -4.01077446397900E-09   6.81966353544474E-07   2.34261979697487E-13   0.00000000000000E+00   0.00000000000000E+00
      0.00000000000000E+00  -4.20743976227542E-11  -1.97157427327607E-16   2.10395105896831E-07   2.10353031302051E-07
     -6.21462117679327E-14  -4.50000000000000E+01  -4.50000000000000E+01   0.00000000000000E+00  -5.58887512421620E-07
     -6.25756089235770E-15  -3.33431866167347E-07  -8.92319384846528E-07  -1.72115767929553E-13
      1.61182922363281E-10
      8.00000000000000E-01   8.00000000000000E-01   0.00000000000000E+00   1.17805398218833E-11   6.96013993087874E-07
     -3.14737557946669E-09   6.92878398048229E-07   2.34273379621401E-13   0.00000000000000E+00   0.00000000000000E+00
      0.00000000000000E+00  -2.97676371899459E-11  -1.97157460773849E-16   1.88412422332859E-07   1.88382654498511E-07
     -6.21398454940813E-14  -4.50000000000000E+01  -4.50000000000000E+01   0.00000000000000E+00  -5.36860149224675E-07
     -6.25796448971394E-15  -3.44400897064102E-07  -8.81261052546742E-07  -1.72133534127319E-13
      2.09837799072266E-10
      8.00000000000000E-01   8.00000000000000E-01   0.00000000000000E+00   2.65136855879852E-12   7.00470034768954E-07
     -2.18882559899376E-09   6.98283860538519E-07   2.34290358868947E-13   0.00000000000000E+00   0.00000000000000E+00
      0.00000000000000E+00  -1.97533436476065E-11  -1.97157488428622E-16   1.65777342453693E-07   1.65757588912888E-07
     -6.21313833912370E-14  -4.50000000000000E+01  -4.50000000000000E+01   0.00000000000000E+00  -5.09385219151480E-07
     -6.25854286840347E-15  -3.54656224041384E-07  -8.64041449451407E-07  -1.72158975477710E-13
      2.46328956604004E-10
      8.00000000000000E-01   8.00000000000000E-01   0.00000000000000E+00  -8.31060223132258E-13   6.99152002685322E-07
     -1.67084896470863E-09   6.97480322660391E-07   2.34302904760659E-13   0.00000000000000E+00   0.00000000000000E+00
      0.00000000000000E+00  -1.61608235387790E-11  -1.97157498361259E-16   1.53352641831970E-07   1.53336480811273E-07
     -6.21256648172597E-14  -4.50000000000000E+01  -4.50000000000000E+01   0.00000000000000E+00  -4.91816922678121E-07
     -6.25895829586501E-15  -3.58999874534584E-07  -8.50816803471664E-07  -1.72177239943400E-13
      3.01065692901611E-10
      8.00000000000000E-01   8.00000000000000E-01   0.00000000000000E+00  -3.30960491867590E-12   6.94059305103138E-07
     -1.11654258581462E-09   6.92939452912405E-07   2.34321362667420E-13   0.00000000000000E+00   0.00000000000000E+00
      0.00000000000000E+00  -1.38512476334155E-11  -1.97157504864041E-16   1.37794053074336E-07   1.37780201629545E-07
     -6.21178485392683E-14  -4.50000000000000E+01  -4.50000000000000E+01   0.00000000000000E+00  -4.68441340713703E-07
     -6.25955606645053E-15  -3.62278307568688E-07  -8.30719654541947E-07  -1.72203514128153E-13
      3.42118245124817E-10
      8.00000000000000E-01   8.00000000000000E-01   0.00000000000000E+00  -3.91722808765256E-12   6.89288572315099E-07
     -8.29009797936668E-10   6.88455645289075E-07   2.34334933990731E-13   0.00000000000000E+00   0.00000000000000E+00
      0.00000000000000E+00  -1.34804297501248E-11  -1.97157506724560E-16   1.27101768528598E-07   1.27088287901691E-07
     -6.21125186099185E-14  -4.50000000000000E+01  -4.50000000000000E+01   0.00000000000000E+00  -4.52474593283732E-07
     -6.25998616333748E-15  -3.63069333647048E-07  -8.15543933190766E-07  -1.72222415380812E-13
      4.03697073459625E-10
      8.00000000000000E-01   8.00000000000000E-01   0.00000000000000E+00  -3.89764000121878E-12   6.82254047206632E-07
     -5.33110918386933E-10   6.81717038648243E-07   2.34354922823784E-13   0.00000000000000E+00   0.00000000000000E+00
      0.00000000000000E+00  -1.38819803266354E-11  -1.97157509485535E-16   1.11042890834698E-07   1.11029008657214E-07
     -6.21053400399962E-14  -4.50000000000000E+01  -4.50000000000000E+01   0.00000000000000E+00  -4.30003837884095E-07
     -6.26060439047228E-15  -3.62742203160757E-07  -7.92746047305455E-07  -1.72249582783786E-13
      4.49881194710732E-10
      8.00000000000000E-01   8.00000000000000E-01   0.00000000000000E+00  -3.50728093309429E-12   6.77564187286794E-07
     -3.86164133773664E-10   6.77174515872088E-07   2.34369681649169E-13   0.00000000000000E+00   0.00000000000000E+00
      0.00000000000000E+00  -1.45425021207736E-11  -1.97157513470310E-16   9.85102222020437E-08   9.84956795027654E-08
     -6.21006120079546E-14  -4.50000000000000E+01  -4.50000000000000E+01   0.00000000000000E+00  -4.13913511516327E-07
     -6.26104783873140E-15  -3.61756677597480E-07  -7.75670195374855E-07  -1.72269069641213E-13
      5.19157376587391E-10
      8.00000000000000E-01   8.00000000000000E-01   0.00000000000000E+00  -2.72337089357805E-12   6.71878705364413E-07
     -2.40937492312282E-10   6.71635044501207E-07   2.34391567002206E-13   0.00000000000000E+00   0.00000000000000E+00
      0.00000000000000E+00  -1.56762662890784E-11  -1.97157525028044E-16   7.85286213463778E-08   7.85129448829312E-08
     -6.20946362487328E-14  -4.50000000000000E+01  -4.50000000000000E+01   0.00000000000000E+00  -3.90492053498743E-07
     -6.26168182246878E-15  -3.59655929623715E-07  -7.50147989384140E-07  -1.72296930753475E-13
      5.71114512994885E-10
      8.00000000000000E-01   8.00000000000000E-01   0.00000000000000E+00  -2.10355942184234E-12   6.68714754973471E-07
     -1.71954088697777E-10   6.68540697325351E-07   2.34407855889920E-13   0.00000000000000E+00   0.00000000000000E+00
      0.00000000000000E+00  -1.65023123633714E-11  -1.97157539017468E-16   6.25718816539693E-08   6.25553791444484E-08
     -6.20910834337028E-14  -4.50000000000000E+01  -4.50000000000000E+01   0.00000000000000E+00  -3.73300338556685E-07
     -6.26213328962165E-15  -3.57795731650981E-07  -7.31096076469800E-07  -1.72316772456217E-13
      6.49050217606127E-10
      8.00000000000000E-01   8.00000000000000E-01   0.00000000000000E+00  -1.25159908979761E-12   6.65597578064230E-07
     -1.06379360933733E-10   6.65489947104207E-07   2.34432225330359E-13   0.00000000000000E+00   0.00000000000000E+00
      0.00000000000000E+00  -1.75957250084643E-11  -1.97157569536558E-16   3.72045581342462E-08   3.71869622120801E-08
     -6.20873510039101E-14  -4.50000000000000E+01  -4.50000000000000E+01   0.00000000000000E+00  -3.47886090873819E-07
     -6.26277264125231E-15  -3.54790812179697E-07  -7.02676909316289E-07  -1.72344874326448E-13
      7.07501996064559E-10
      8.00000000000000E-01   8.00000000000000E-01   0.00000000000000E+00  -7.06461932192725E-13   6.64381780427361E-07
     -7.64703167658712E-11   6.64304603648663E-07   2.34450528092249E-13   0.00000000000000E+00   0.00000000000000E+00
      0.00000000000000E+00  -1.82678418008190E-11  -1.97157600047313E-16   1.72029695065394E-08   1.71847014675810E-08
     -6.20858703698056E-14  -4.50000000000000E+01  -4.50000000000000E+01   0.00000000000000E+00  -3.29040118144139E-07
     -6.26322268896653E-15  -3.52449180708881E-07  -6.81489305116243E-07  -1.72364657722444E-13
      7.95179663752206E-10
      8.00000000000000E-01   8.00000000000000E-01   0.00000000000000E+00  -6.56414760207535E-14   6.63975705923672E-07
     -4.88904125185983E-11   6.63926749869677E-07   2.34478153393139E-13   0.00000000000000E+00   0.00000000000000E+00
      0.00000000000000E+00  -1.90300354006046E-11  -1.97157656922992E-16  -1.40012510518715E-08  -1.40202812844298E-08
     -6.20858754886151E-14  -4.50000000000000E+01  -4.50000000000000E+01   0.00000000000000E+00  -3.01021912413562E-07
     -6.26385094178340E-15  -3.48884549907834E-07  -6.49906468585247E-07  -1.72392277904524E-13
      9.26696165283676E-10
      8.00000000000000E-01   8.00000000000000E-01   0.00000000000000E+00   4.77436050124999E-13   6.65498000840172E-07
     -2.81684272909617E-11   6.65470309848931E-07   2.34520211664396E-13   0.00000000000000E+00   0.00000000000000E+00
      0.00000000000000E+00  -1.95977031459352E-11  -1.97157753683772E-16  -6.24935041331196E-08  -6.25131020334233E-08
     -6.20910811003195E-14  -4.50000000000000E+01  -4.50000000000000E+01   0.00000000000000E+00  -2.59446315359070E-07
     -6.26468906533770E-15  -3.43510886191750E-07  -6.02957207815509E-07  -1.72429130564076E-13
      1.02533354143228E-09
      8.00000000000000E-01   8.00000000000000E-01   0.00000000000000E+00   5.20506433585545E-13   6.67395783492191E-07
     -2.06742490742059E-11   6.67375629749550E-07   2.34552359155810E-13   0.00000000000000E+00   0.00000000000000E+00
      0.00000000000000E+00  -1.95269722556766E-11  -1.97157806750034E-16  -9.92909831986896E-08  -9.93105103681031E-08
     -6.20991611190577E-14  -4.50000000000000E+01  -4.50000000000000E+01   0.00000000000000E+00  -2.28574007165423E-07
     -6.26523634169747E-15  -3.39491105950786E-07  -5.68065119381446E-07  -1.72453198036752E-13
      1.17328960565518E-09
      8.00000000000000E-01   8.00000000000000E-01   0.00000000000000E+00  -2.05351468701075E-13   6.69072613449150E-07
     -1.45722912989758E-11   6.69057835806382E-07   2.34601543855423E-13   0.00000000000000E+00   0.00000000000000E+00
      0.00000000000000E+00  -1.83487987054680E-11  -1.97157685595531E-16  -1.52806759561559E-07  -1.52825108557422E-07
     -6.21179217308751E-14  -4.50000000000000E+01  -4.50000000000000E+01   0.00000000000000E+00  -1.82733435167998E-07
     -6.26592808198633E-15  -3.33499285815036E-07  -5.16232727248961E-07  -1.72483622124549E-13
      1.28425665382236E-09
      8.00000000000000E-01   8.00000000000000E-01   0.00000000000000E+00  -1.58385518669211E-12   6.67262319245159E-07
     -1.19995222035107E-11   6.67248735867769E-07   2.34638960861778E-13   0.00000000000000E+00   0.00000000000000E+00
      0.00000000000000E+00  -1.62986383705300E-11  -1.97157171413287E-16  -1.89445805582608E-07  -1.89462104418136E-07
     -6.21369486871292E-14  -4.50000000000000E+01  -4.50000000000000E+01   0.00000000000000E+00  -1.48749392841737E-07
     -6.26634617578500E-15  -3.29037232341551E-07  -4.77786631449634E-07  -1.72502012174651E-13
      1.36748193994775E-09
      8.00000000000000E-01   8.00000000000000E-01   0.00000000000000E+00  -3.24716548313297E-12   6.62603585090370E-07
     -1.06135198794369E-11   6.62589724405007E-07   2.34667050559307E-13   0.00000000000000E+00   0.00000000000000E+00
      0.00000000000000E+00  -1.39015870575956E-11  -1.97156270431314E-16  -2.13337571727937E-07  -2.13351473512151E-07
     -6.21537091033590E-14  -4.50000000000000E+01  -4.50000000000000E+01   0.00000000000000E+00  -1.23529092721158E-07
     -6.26660373994234E-15  -3.25709151905095E-07  -4.49238250892857E-07  -1.72513341455948E-13
      1.49231986913582E-09
      8.00000000000000E-01   8.00000000000000E-01   0.00000000000000E+00  -6.79933740551118E-12   6.47328598502172E-07
     -9.03190889587548E-12   6.47312767255871E-07   2.34708465893829E-13   0.00000000000000E+00   0.00000000000000E+00
      0.00000000000000E+00  -8.75389889987046E-12  -1.97153284537521E-16  -2.40257389034895E-07  -2.40266143130948E-07
     -6.21820318406502E-14  -4.50000000000000E+01  -4.50000000000000E+01   0.00000000000000E+00  -8.62993059119455E-08
     -6.26690140469582E-15  -3.20747311946074E-07  -4.07046624124921E-07  -1.72526434053180E-13
      1.58594831602688E-09
      8.00000000000000E-01   8.00000000000000E-01   0.00000000000000E+00  -1.02116550699256E-11   6.27402577488852E-07
     -8.10602687351402E-12   6.27384259806909E-07   2.34738248369413E-13   0.00000000000000E+00   0.00000000000000E+00
      0.00000000000000E+00  -3.75350141169648E-12  -1.97148937510765E-16  -2.51283860810623E-07  -2.51287614509184E-07
     -6.22050130012213E-14  -4.50000000000000E+01  -4.50000000000000E+01   0.00000000000000E+00  -5.90462838233320E-08
     -6.26705605988700E-15  -3.17050355207336E-07  -3.76096645297724E-07  -1.72533235368192E-13
      1.72639098636346E-09
      8.00000000000000E-01   8.00000000000000E-01   0.00000000000000E+00  -1.58827683646416E-11   5.81065279211554E-07
     -6.97921377776852E-12   5.81042417229411E-07   2.34778967815462E-13   0.00000000000000E+00   0.00000000000000E+00
      0.00000000000000E+00   4.81277679696799E-12  -1.97136543458292E-16  -2.49621712144768E-07  -2.49616899565108E-07
     -6.22402054522810E-14  -4.50000000000000E+01  -4.50000000000000E+01   0.00000000000000E+00  -1.98787264755178E-08
     -6.26718180966701E-15  -3.11546784921604E-07  -3.31425517664303E-07  -1.72538762363181E-13
      1.83172298911590E-09
      8.00000000000000E-01   8.00000000000000E-01   0.00000000000000E+00  -1.98928984164444E-11   5.33145639918377E-07
     -6.28397918741604E-12   5.33119463040774E-07   2.34804999874676E-13   0.00000000000000E+00   0.00000000000000E+00
      0.00000000000000E+00   1.12094196618775E-11  -1.97120479605294E-16  -2.33273027361288E-07  -2.33261818138746E-07
     -6.22655996828516E-14  -4.50000000000000E+01  -4.50000000000000E+01   0.00000000000000E+00   7.59671889730959E-09
     -6.26719642673501E-15  -3.07454357532139E-07  -2.99857644902026E-07  -1.72539400191825E-13
      1.98972099324456E-09
      8.00000000000000E-01   8.00000000000000E-01   0.00000000000000E+00  -2.40043051244471E-11   4.44421022918122E-07
     -5.41076953048882E-12   4.44391607843467E-07   2.34834107759288E-13   0.00000000000000E+00   0.00000000000000E+00
      0.00000000000000E+00   1.87126444406228E-11  -1.97080397417203E-16  -1.87534912341116E-07  -1.87516199893756E-07
     -6.22988631904418E-14  -4.50000000000000E+01  -4.50000000000000E+01   0.00000000000000E+00   4.45040014534407E-08
     -6.26710219248380E-15  -3.01379403136050E-07  -2.56875407949712E-07  -1.72535244568848E-13
      2.10821949634105E-09
      8.00000000000000E-01   8.00000000000000E-01   0.00000000000000E+00  -2.49132861885515E-11   3.70373269470623E-07
     -4.86097025202561E-12   3.70343495214182E-07   2.34846880718362E-13   0.00000000000000E+00   0.00000000000000E+00
      0.00000000000000E+00   2.16816545104110E-11  -1.97034617033305E-16  -1.41586570495503E-07  -1.41564889038028E-07
     -6.23183273063265E-14  -4.50000000000000E+01  -4.50000000000000E+01   0.00000000000000E+00   6.81004852533912E-08
     -6.26695029744171E-15  -2.96879085162596E-07  -2.28778606176155E-07  -1.72528553412036E-13
      2.28596725098579E-09
      8.00000000000000E-01   8.00000000000000E-01   0.00000000000000E+00  -2.26655434630499E-11   2.61953930081239E-07
     -4.16414800487536E-12   2.61927100389771E-07   2.34850772411950E-13   0.00000000000000E+00   0.00000000000000E+00
      0.00000000000000E+00   2.13610866248111E-11  -1.96936986190059E-16  -6.79473335514650E-08  -6.79259726617772E-08
     -6.23368902088428E-14  -4.50000000000000E+01  -4.50000000000000E+01   0.00000000000000E+00   9.62315863876490E-08
     -6.26661713515586E-15  -2.90232707849026E-07  -1.94001127727994E-07  -1.72513882203106E-13
      2.41927806696935E-09
      8.00000000000000E-01   8.00000000000000E-01   0.00000000000000E+00  -1.89219131694650E-11   1.91164801463251E-07
     -3.72288479692914E-12   1.91142156665285E-07   2.34842560169105E-13   0.00000000000000E+00   0.00000000000000E+00
      0.00000000000000E+00   1.81752021907977E-11  -1.96841831035990E-16  -1.76316723168282E-08  -1.76134973114793E-08
     -6.23425701374838E-14  -4.50000000000000E+01  -4.50000000000000E+01   0.00000000000000E+00   1.11809920191235E-07
     -6.26630160158712E-15  -2.85338573278739E-07  -1.73528659353805E-07  -1.72499990031622E-13
      2.61924429094468E-09
      8.00000000000000E-01   8.00000000000000E-01   0.00000000000000E+00  -1.24006566764879E-11   1.11336921585271E-07
     -3.16056344006337E-12   1.11321360365154E-07   2.34816297777152E-13   0.00000000000000E+00   0.00000000000000E+00
      0.00000000000000E+00   1.15442681100301E-11  -1.96673776767570E-16   3.88913961946696E-08   3.89029402661059E-08
     -6.23403406140916E-14  -4.50000000000000E+01  -4.50000000000000E+01   0.00000000000000E+00   1.27925285152771E-07
     -6.26575565774275E-15  -2.78149579518276E-07  -1.50224300631260E-07  -1.72475957163061E-13
      2.76921895892618E-09
      8.00000000000000E-01   8.00000000000000E-01   0.00000000000000E+00  -8.07911349720277E-12   7.22192482548635E-08
     -2.80186557959160E-12   7.22083672757867E-08   2.34788775422111E-13   0.00000000000000E+00   0.00000000000000E+00
      0.00000000000000E+00   6.80979662099100E-12  -1.96538419441508E-16   6.48678716698092E-08   6.48746812698917E-08
     -6.23326102407519E-14  -4.50000000000000E+01  -4.50000000000000E+01   0.00000000000000E+00   1.35779303948460E-07
     -6.26530599006151E-15  -2.72862346228832E-07  -1.37083048545678E-07  -1.72456165181360E-13
      2.88169995991231E-09
      8.00000000000000E-01   8.00000000000000E-01   0.00000000000000E+00  -5.60604331358370E-12   5.25479693200828E-08
     -2.56147636098372E-12   5.25398018004082E-08   2.34765410149413E-13   0.00000000000000E+00   0.00000000000000E+00
      0.00000000000000E+00   3.97259181983606E-12  -1.96438229960129E-16   7.62809203622292E-08   7.62848927576108E-08
     -6.23247658695375E-14  -4.50000000000000E+01  -4.50000000000000E+01   0.00000000000000E+00   1.40106573442292E-07
     -6.26495332649305E-15  -2.68931261735358E-07  -1.28824694558019E-07  -1.72440644279877E-13
      2.96606071065190E-09
      8.00000000000000E-01   8.00000000000000E-01   0.00000000000000E+00  -4.17426538283157E-12   4.19756446088642E-08
     -2.39515071090486E-12   4.19690751927704E-08   2.34746923798590E-13   0.00000000000000E+00   0.00000000000000E+00
      0.00000000000000E+00   2.31562885852362E-12  -1.96366287985047E-16   8.12631160248052E-08   8.12654314572975E-08
     -6.23182119553364E-14  -4.50000000000000E+01  -4.50000000000000E+01   0.00000000000000E+00   1.42748091793761E-07
     -6.26468218116559E-15  -2.65982592179147E-07  -1.23234506650068E-07  -1.72428711843254E-13
      3.09260183676129E-09
      8.00000000000000E-01   8.00000000000000E-01   0.00000000000000E+00  -2.63145448454105E-12   3.09567930540279E-08
     -2.16555617934392E-12   3.09519960433640E-08   2.34718298344682E-13   0.00000000000000E+00   0.00000000000000E+00
      0.00000000000000E+00   5.02067904613977E-13  -1.96266253929080E-16   8.45311841324324E-08   8.45316860040707E-08
     -6.23078612652679E-14  -4.50000000000000E+01  -4.50000000000000E+01   0.00000000000000E+00   1.46027166453036E-07
     -6.26426688818830E-15  -2.61510842236204E-07  -1.15483682047435E-07  -1.72410437079415E-13
      3.28241352592538E-09
      8.00000000000000E-01   8.00000000000000E-01   0.00000000000000E+00  -1.31164452930420E-12   2.14355425010399E-08
     -1.86071736525831E-12   2.14323701391454E-08   2.34674504167729E-13   0.00000000000000E+00   0.00000000000000E+00
      0.00000000000000E+00  -1.06657811845144E-12  -1.96137605807249E-16   8.32878775587590E-08   8.32868107845030E-08
     -6.22921519337780E-14  -4.50000000000000E+01  -4.50000000000000E+01   0.00000000000000E+00   1.49789418359562E-07
     -6.26362860047867E-15  -2.54508593019582E-07  -1.04719180923649E-07  -1.72382352233952E-13
      3.42477229279844E-09
      8.00000000000000E-01   8.00000000000000E-01   0.00000000000000E+00  -8.24015036863973E-13   1.74991200995304E-08
     -1.65972103917715E-12   1.74966363634544E-08   2.34641640034799E-13   0.00000000000000E+00   0.00000000000000E+00
      0.00000000000000E+00  -1.64221156404576E-12  -1.96058718382602E-16   7.95461343544338E-08   7.95444919468111E-08
     -6.22807585052090E-14  -4.50000000000000E+01  -4.50000000000000E+01   0.00000000000000E+00   1.51790259670292E-07
     -6.26314058799011E-15  -2.48831381717417E-07  -9.70411283102656E-08  -1.72360881529590E-13
      3.63831044310804E-09
      8.00000000000000E-01   8.00000000000000E-01   0.00000000000000E+00  -4.80457197918842E-13   1.38925889427834E-08
     -1.39664246507760E-12   1.38907118431204E-08   2.34593178438124E-13   0.00000000000000E+00   0.00000000000000E+00
      0.00000000000000E+00  -2.01295025671400E-12  -1.95965953095228E-16   7.20147428622969E-08   7.20127297160742E-08
     -6.22648845428061E-14  -4.50000000000000E+01  -4.50000000000000E+01   0.00000000000000E+00   1.53244721722726E-07
     -6.26239983132556E-15  -2.39148157019521E-07  -8.59034415591946E-08  -1.72328293895318E-13
      3.79846405584023E-09
      8.00000000000000E-01   8.00000000000000E-01   0.00000000000000E+00  -3.72620843922590E-13   1.20878510669769E-08
     -1.22625601259231E-12   1.20862521901204E-08   2.34557874969890E-13   0.00000000000000E+00   0.00000000000000E+00
      0.00000000000000E+00  -2.08161722534421E-12  -1.95913313428964E-16   6.57381881127808E-08   6.57361062996422E-08
     -6.22540999003781E-14  -4.50000000000000E+01  -4.50000000000000E+01   0.00000000000000E+00   1.52818106708482E-07
     -6.26184244192247E-15  -2.30640458936402E-07  -7.78223584897624E-08  -1.72303775069512E-13
      4.03869447493853E-09
      8.00000000000000E-01   8.00000000000000E-01   0.00000000000000E+00  -2.93633501565678E-13   9.96809321225255E-09
     -1.00771433428704E-12   9.96679186441670E-09   2.34507295971144E-13   0.00000000000000E+00   0.00000000000000E+00
      0.00000000000000E+00  -2.04154105035612E-12  -1.95854856214292E-16   5.62583831281254E-08   5.62563413912202E-08
     -6.22398283237546E-14  -4.50000000000000E+01  -4.50000000000000E+01   0.00000000000000E+00   1.49112951927907E-07
     -6.26101699510057E-15  -2.15336078922527E-07  -6.62231332556370E-08  -1.72267467647389E-13
      4.21886728926225E-09
      8.00000000000000E-01   8.00000000000000E-01   0.00000000000000E+00  -2.59662282853424E-13   8.63886207964657E-09
     -8.69318021312131E-13   8.63773309934240E-09   2.34471676544156E-13   0.00000000000000E+00   0.00000000000000E+00
      0.00000000000000E+00  -1.94380674143009E-12  -1.95823597004733E-16   4.94002553003088E-08   4.93983112977437E-08
     -6.22306025087706E-14  -4.50000000000000E+01  -4.50000000000000E+01   0.00000000000000E+00   1.43666281960465E-07
     -6.26041689058457E-15  -2.01702320097134E-07  -5.80360443970860E-08  -1.72241074035386E-13
      4.48912651074783E-09
      8.00000000000000E-01   8.00000000000000E-01   0.00000000000000E+00  -2.19920656308813E-13   6.91240991643610E-09
     -6.95854805048551E-13   6.91149414097475E-09   2.34422855029724E-13   0.00000000000000E+00   0.00000000000000E+00