DF-ISE text

Info {
  version   = 1.0
  type      = xyplot
  datasets  = [
    "time"
    "Ntop OuterVoltage" "Ntop InnerVoltage" "Ntop QuasiFermiPotential" "Ntop DisplacementCurrent" "Ntop eCurrent"
    "Ntop hCurrent" "Ntop TotalCurrent" "Ntop Charge" "Ptop OuterVoltage" "Ptop InnerVoltage"
    "Ptop QuasiFermiPotential" "Ptop DisplacementCurrent" "Ptop eCurrent" "Ptop hCurrent" "Ptop TotalCurrent"
    "Ptop Charge" "Pbot OuterVoltage" "Pbot InnerVoltage" "Pbot QuasiFermiPotential" "Pbot DisplacementCurrent"
    "Pbot eCurrent" "Pbot hCurrent" "Pbot TotalCurrent" "Pbot Charge" ]
  functions = [
    Time
    OuterVoltage InnerVoltage QuasiFermiPotential DisplacementCurrent eCurrent
    hCurrent TotalCurrent Charge OuterVoltage InnerVoltage
    QuasiFermiPotential DisplacementCurrent eCurrent hCurrent TotalCurrent
    Charge OuterVoltage InnerVoltage QuasiFermiPotential DisplacementCurrent
    eCurrent hCurrent TotalCurrent Charge ]
}

Data {
      5.00000000000000E-13
      8.00000000000000E-01   8.00000000000000E-01   0.00000000000000E+00   9.91727893078840E-15   4.28329064695147E-12
     -3.82934062872429E-12   4.63867297157966E-13   2.34224766837331E-13   0.00000000000000E+00   0.00000000000000E+00
      0.00000000000000E+00  -1.16778395407544E-13  -1.97157898428455E-16   1.75432727072912E-09   1.75421029517582E-09
     -6.21801123149721E-14  -4.50000000000000E+01  -4.50000000000000E+01   0.00000000000000E+00  -2.31956261760219E-13
      7.63376625169743E-12  -1.76207597246291E-09  -1.75467416247297E-09  -1.72044654522358E-13
      1.25000000000000E-12
      8.00000000000000E-01   8.00000000000000E-01   0.00000000000000E+00   5.99509837646209E-14   1.88690606072918E-11
     -1.76697895775054E-11   1.25922201355109E-12   2.34224766837542E-13   0.00000000000000E+00   0.00000000000000E+00
      0.00000000000000E+00  -8.74940746804173E-14  -1.97157898427032E-16   1.75495362897465E-09   1.75486593774207E-09
     -6.21801123146368E-14  -4.50000000000000E+01  -4.50000000000000E+01   0.00000000000000E+00  -1.30174482840400E-12
      3.52393889439632E-11  -1.79006280387118E-09  -1.75612515975562E-09  -1.72044654522906E-13
      2.37500000000000E-12
      8.00000000000000E-01   8.00000000000000E-01   0.00000000000000E+00   4.46532440981087E-13   1.56370520330370E-10
     -1.46201676652375E-10   1.06153761189765E-11   2.34224766840637E-13   0.00000000000000E+00   0.00000000000000E+00
      0.00000000000000E+00   6.25949619079502E-13  -1.97157898412117E-16   1.76223941247179E-09   1.76286516493297E-09
     -6.21801123096079E-14  -4.50000000000000E+01  -4.50000000000000E+01   0.00000000000000E+00  -1.41457196831751E-11
      2.91525962135001E-10  -2.05086078350377E-09  -1.77348054105194E-09  -1.72044654531029E-13
      4.06250000000000E-12
      8.00000000000000E-01   8.00000000000000E-01   0.00000000000000E+00   6.67656231776988E-12   2.42713193170648E-09
     -2.21791346437335E-09   2.15895029650908E-10   2.34224766931526E-13   0.00000000000000E+00   0.00000000000000E+00
      0.00000000000000E+00   8.53476631324892E-12  -1.97157898067245E-16   1.93314842044949E-09   1.94168298960485E-09
     -6.21801121574492E-14  -4.50000000000000E+01  -4.50000000000000E+01   0.00000000000000E+00  -2.98400548416762E-10
      4.42025018429118E-09  -6.27942765513016E-09  -2.15757801925575E-09  -1.72044654774077E-13
      6.59375000000000E-12
      8.00000000000000E-01   8.00000000000000E-01   0.00000000000000E+00   1.32972076382937E-10   5.05391381346406E-08
     -4.43857775475416E-08   6.28633266348197E-09   2.34224770803186E-13   0.00000000000000E+00   0.00000000000000E+00
      0.00000000000000E+00   1.72078168916954E-10  -1.97157887543019E-16   7.14707101300694E-09   7.31914898476600E-09
     -6.21801054962855E-14  -4.50000000000000E+01  -4.50000000000000E+01   0.00000000000000E+00  -8.77022175025913E-09
      8.83818375749314E-08  -9.32170974729203E-08  -1.36054816482480E-08  -1.72044665306900E-13
      1.03906250000000E-11
      8.00000000000000E-01   8.00000000000000E-01   0.00000000000000E+00   1.11094349634484E-09   4.53140348505474E-07
     -3.69433201036283E-07   8.48180909655357E-08   2.34224852884771E-13   0.00000000000000E+00   0.00000000000000E+00
      0.00000000000000E+00   1.42526087290964E-09  -1.97157748782581E-16   7.57820773637864E-08   7.72073380395383E-08
     -6.21799622396322E-14  -4.50000000000000E+01  -4.50000000000000E+01   0.00000000000000E+00  -1.18518666292105E-07
      7.34363350640597E-07  -7.77870113353566E-07  -1.62025429005074E-07  -1.72044890645139E-13
      1.60859375000000E-11
      8.00000000000000E-01   8.00000000000000E-01   0.00000000000000E+00   6.47656020788937E-10   4.05310741388077E-07
     -1.97691759417051E-07   2.08266637991814E-07   2.34225283902848E-13   0.00000000000000E+00   0.00000000000000E+00
      0.00000000000000E+00   6.69840429134241E-10  -1.97157538388001E-16   1.79216605613413E-07   1.79886445845390E-07
     -6.21792256307100E-14  -4.50000000000000E+01  -4.50000000000000E+01   0.00000000000000E+00  -2.84446485509572E-07
      3.86959003180444E-07  -4.90665601508075E-07  -3.88153083837203E-07  -1.72046058272137E-13
      2.46289062500000E-11
      8.00000000000000E-01   8.00000000000000E-01   0.00000000000000E+00   8.55383655073820E-11   2.77188979061885E-07
     -4.93766433300364E-09   2.72336853094389E-07   2.34226360343448E-13   0.00000000000000E+00   0.00000000000000E+00
      0.00000000000000E+00  -1.05167997727646E-10  -1.97157476830978E-16   2.08348451219116E-07   2.08243283024231E-07
     -6.21775505775908E-14  -4.50000000000000E+01  -4.50000000000000E+01   0.00000000000000E+00  -3.47961465179973E-07
      7.17025120309623E-10  -1.33335696058958E-07  -4.80580136118621E-07  -1.72048809765858E-13
      3.74433593750000E-11
      8.00000000000000E-01   8.00000000000000E-01   0.00000000000000E+00   6.24932294812235E-11   2.98572204669786E-07
     -4.16187020182415E-09   2.94472827697443E-07   2.34228268443879E-13   0.00000000000000E+00   0.00000000000000E+00
      0.00000000000000E+00  -7.97143287908406E-11  -1.97157517710259E-16   1.86364076879122E-07   1.86284362353174E-07
     -6.21750505689975E-14  -4.50000000000000E+01  -4.50000000000000E+01   0.00000000000000E+00  -3.39973676004538E-07
     -6.25609124664009E-15  -1.40783507789988E-07  -4.80757190050617E-07  -1.72053217874880E-13
      5.66650390625000E-11
      8.00000000000000E-01   8.00000000000000E-01   0.00000000000000E+00   4.28994087016127E-11   3.21172531573664E-07
     -3.60309171158877E-09   3.17612339270777E-07   2.34231392364918E-13   0.00000000000000E+00   0.00000000000000E+00
      0.00000000000000E+00  -5.76616674514864E-11  -1.97157563400038E-16   1.61469511935157E-07   1.61411850070548E-07
     -6.21717549185020E-14  -4.50000000000000E+01  -4.50000000000000E+01   0.00000000000000E+00  -3.28071769913205E-07
     -6.25628964700487E-15  -1.50952413171831E-07  -4.79024189341325E-07  -1.72059637446416E-13
      8.54975585937500E-11
      8.00000000000000E-01   8.00000000000000E-01   0.00000000000000E+00   2.58090966783264E-11   3.42460889031785E-07
     -2.90175127624152E-09   3.39584946852221E-07   2.34236416638242E-13   0.00000000000000E+00   0.00000000000000E+00
      0.00000000000000E+00  -3.81238164167068E-11  -1.97157609901327E-16   1.35540123711723E-07   1.35501999698149E-07
     -6.21675497495088E-14  -4.50000000000000E+01  -4.50000000000000E+01   0.00000000000000E+00  -3.12359552984337E-07
     -6.25649920389072E-15  -1.62727387309534E-07  -4.75086946550370E-07  -1.72068866888733E-13
      1.28746337890625E-10
      8.00000000000000E-01   8.00000000000000E-01   0.00000000000000E+00   1.19692244048132E-11   3.58902563398698E-07
     -2.09648310711466E-09   3.56818049515988E-07   2.34244290231835E-13   0.00000000000000E+00   0.00000000000000E+00
      0.00000000000000E+00  -2.21664922634604E-11  -1.97157651423451E-16   1.11160363443214E-07   1.11138196753793E-07
     -6.21623369928279E-14  -4.50000000000000E+01  -4.50000000000000E+01   0.00000000000000E+00  -2.93204920573396E-07
     -6.25679661771674E-15  -1.74751319439588E-07  -4.67956246269781E-07  -1.72081953239008E-13
      1.61182922363281E-10
      8.00000000000000E-01   8.00000000000000E-01   0.00000000000000E+00   6.24237270726067E-12   3.64244220237444E-07
     -1.64484494804239E-09   3.62605617662109E-07   2.34250271992178E-13   0.00000000000000E+00   0.00000000000000E+00
      0.00000000000000E+00  -1.56551523644449E-11  -1.97157669057902E-16   9.95887054055564E-08   9.95730500560343E-08
     -6.21589994136712E-14  -4.50000000000000E+01  -4.50000000000000E+01   0.00000000000000E+00  -2.81574220555170E-07
     -6.25700856808330E-15  -1.80604440905964E-07  -4.62178667718143E-07  -1.72091272578506E-13
      2.09837799072266E-10
      8.00000000000000E-01   8.00000000000000E-01   0.00000000000000E+00   1.38909920937167E-12   3.66611632124173E-07
     -1.14368033702433E-09   3.65469340886358E-07   2.34259177842841E-13   0.00000000000000E+00   0.00000000000000E+00
      0.00000000000000E+00  -1.03254531891391E-11  -1.97157683579491E-16   8.77145225213553E-08   8.77041968710084E-08
     -6.21545644661449E-14  -4.50000000000000E+01  -4.50000000000000E+01   0.00000000000000E+00  -2.67051712509111E-07
     -6.25731209936924E-15  -1.86121818990942E-07  -4.53173537757365E-07  -1.72104613376696E-13
      2.46328956604004E-10
      8.00000000000000E-01   8.00000000000000E-01   0.00000000000000E+00  -4.73651776438415E-13   3.65897352325732E-07
     -8.72977066524303E-10   3.65023901607432E-07   2.34265754247703E-13   0.00000000000000E+00   0.00000000000000E+00
      0.00000000000000E+00  -8.40187822048178E-12  -1.97157688720922E-16   8.12371505614135E-08   8.12287484860353E-08
     -6.21515668920880E-14  -4.50000000000000E+01  -4.50000000000000E+01   0.00000000000000E+00  -2.57765806993157E-07
     -6.25752998639360E-15  -1.88486836842779E-07  -4.46252650093466E-07  -1.72114187355615E-13
      3.01065692901611E-10
      8.00000000000000E-01   8.00000000000000E-01   0.00000000000000E+00  -1.80332914356167E-12   3.63147828221763E-07
     -5.83373010147765E-10   3.62562651882472E-07   2.34275421606139E-13   0.00000000000000E+00   0.00000000000000E+00
      0.00000000000000E+00  -7.15606055515094E-12  -1.97157691954744E-16   7.31745913789026E-08   7.31674351211898E-08
     -6.21474662348678E-14  -4.50000000000000E+01  -4.50000000000000E+01   0.00000000000000E+00  -2.45424830800177E-07
     -6.25784336775982E-15  -1.90305249945640E-07  -4.35730087003661E-07  -1.72127955371272E-13
      3.42118245124817E-10
      8.00000000000000E-01   8.00000000000000E-01   0.00000000000000E+00  -2.12964809218049E-12   3.60569237542538E-07
     -4.33188102741393E-10   3.60133919791705E-07   2.34282523070777E-13   0.00000000000000E+00   0.00000000000000E+00
      0.00000000000000E+00  -6.95414750070168E-12  -1.97157692770191E-16   6.76548084835467E-08   6.76478541388883E-08
     -6.21446660614744E-14  -4.50000000000000E+01  -4.50000000000000E+01   0.00000000000000E+00  -2.37008848272245E-07
     -6.25806876346631E-15  -1.90772919400279E-07  -4.27781773930592E-07  -1.72137857009302E-13
      4.03697073459625E-10
      8.00000000000000E-01   8.00000000000000E-01   0.00000000000000E+00  -2.11464863767923E-12   3.56763846608925E-07
     -2.78665740207897E-10   3.56483066220079E-07   2.34292972898730E-13   0.00000000000000E+00   0.00000000000000E+00
      0.00000000000000E+00  -7.17239729848422E-12  -1.97157693979253E-16   5.93636024492502E-08   5.93564298547940E-08
     -6.21408871759064E-14  -4.50000000000000E+01  -4.50000000000000E+01   0.00000000000000E+00  -2.25184431372220E-07
     -6.25839266652079E-15  -1.90655058444260E-07  -4.15839496074873E-07  -1.72152085722823E-13
      4.49881194710732E-10
      8.00000000000000E-01   8.00000000000000E-01   0.00000000000000E+00  -1.89899913382107E-12   3.54226829573500E-07
     -2.01945220775231E-10   3.54022985353591E-07   2.34300681896765E-13   0.00000000000000E+00   0.00000000000000E+00
      0.00000000000000E+00  -7.53358254498645E-12  -1.97157695907042E-16   5.28787267500700E-08   5.28711929703674E-08
     -6.21383919670687E-14  -4.50000000000000E+01  -4.50000000000000E+01   0.00000000000000E+00  -2.16730016334771E-07
     -6.25862495428331E-15  -1.90164155730562E-07  -4.06894178323958E-07  -1.72162289929696E-13
      5.19157376587391E-10
      8.00000000000000E-01   8.00000000000000E-01   0.00000000000000E+00  -1.46648566040784E-12   3.51156645914983E-07
     -1.26139760097355E-10   3.51029039669225E-07   2.34312105209714E-13   0.00000000000000E+00   0.00000000000000E+00
      0.00000000000000E+00  -8.15710028795274E-12  -1.97157701766478E-16   4.25040081984537E-08   4.24958509010080E-08
     -6.21352279018050E-14  -4.50000000000000E+01  -4.50000000000000E+01   0.00000000000000E+00  -2.04437820515648E-07
     -6.25895700861688E-15  -1.89087063795628E-07  -3.93524890570233E-07  -1.72176877307909E-13
      5.71114512994885E-10
      8.00000000000000E-01   8.00000000000000E-01   0.00000000000000E+00  -1.12440012433329E-12   3.49455550577112E-07
     -9.01423479940540E-11   3.49364283828993E-07   2.34320602830480E-13   0.00000000000000E+00   0.00000000000000E+00
      0.00000000000000E+00  -8.60908627904302E-12  -1.97157708983399E-16   3.41903395867444E-08   3.41817303033076E-08
     -6.21333379941474E-14  -4.50000000000000E+01  -4.50000000000000E+01   0.00000000000000E+00  -1.95423276515323E-07
     -6.25919344955299E-15  -1.88122731357785E-07  -3.83546014132302E-07  -1.72187264836333E-13
      6.49050217606127E-10
      8.00000000000000E-01   8.00000000000000E-01   0.00000000000000E+00  -6.53174966263454E-13   3.47797469908127E-07
     -5.59355475377914E-11   3.47740881185623E-07   2.34333312325511E-13   0.00000000000000E+00   0.00000000000000E+00
      0.00000000000000E+00  -9.21177204719201E-12  -1.97157724851149E-16   2.09313107940660E-08   2.09220988248610E-08
     -6.21313366546154E-14  -4.50000000000000E+01  -4.50000000000000E+01   0.00000000000000E+00  -1.82105873156947E-07
     -6.25952827661846E-15  -1.86557100594010E-07  -3.68662980010485E-07  -1.72201975670895E-13
      7.07501996064559E-10
      8.00000000000000E-01   8.00000000000000E-01   0.00000000000000E+00  -3.50983853126282E-13   3.47170981615321E-07
     -4.03410810738150E-11   3.47130289550394E-07   2.34342857206476E-13   0.00000000000000E+00   0.00000000000000E+00
      0.00000000000000E+00  -9.58290253137608E-12  -1.97157740775636E-16   1.04480406033807E-08   1.04384575036916E-08
     -6.21305258100187E-14  -4.50000000000000E+01  -4.50000000000000E+01   0.00000000000000E+00  -1.72235088067950E-07
     -6.25976396280792E-15  -1.85333652726374E-07  -3.57568747054088E-07  -1.72212331396459E-13
      7.95179663752206E-10
      8.00000000000000E-01   8.00000000000000E-01   0.00000000000000E+00   6.08771455278685E-15   3.47014013897289E-07
     -2.59685600465966E-11   3.46988051424957E-07   2.34357266759437E-13   0.00000000000000E+00   0.00000000000000E+00
      0.00000000000000E+00  -1.00094189484849E-11  -1.97157770535553E-16  -5.94455823033818E-09  -5.95456784644444E-09
     -6.21304778523777E-14  -4.50000000000000E+01  -4.50000000000000E+01   0.00000000000000E+00  -1.57565016837515E-07
     -6.26009297787510E-15  -1.83468460480906E-07  -3.41033483578513E-07  -1.72226788907058E-13
      9.26696165283676E-10
      8.00000000000000E-01   8.00000000000000E-01   0.00000000000000E+00   3.14738716267614E-13   3.47966952829610E-07
     -1.51777618439959E-11   3.47952089806482E-07   2.34379219438284E-13   0.00000000000000E+00   0.00000000000000E+00
      0.00000000000000E+00  -1.03371122428586E-11  -1.97157821561324E-16  -3.14863458371085E-08  -3.14966831465092E-08
     -6.21331407172389E-14  -4.50000000000000E+01  -4.50000000000000E+01   0.00000000000000E+00  -1.35801483787772E-07
     -6.26053191942645E-15  -1.80653916611669E-07  -3.16455406659973E-07  -1.72246078721045E-13
      1.02533354143228E-09
      8.00000000000000E-01   8.00000000000000E-01   0.00000000000000E+00   3.49548393593391E-13   3.49119885427089E-07
     -1.12767749962964E-11   3.49108958200486E-07   2.34396015672147E-13   0.00000000000000E+00   0.00000000000000E+00
      0.00000000000000E+00  -1.03156566658416E-11  -1.97157850826018E-16  -5.09101754675366E-08  -5.09204913213603E-08
     -6.21373394227328E-14  -4.50000000000000E+01  -4.50000000000000E+01   0.00000000000000E+00  -1.19640588875211E-07
     -6.26081855012822E-15  -1.78547871743096E-07  -2.98188466879126E-07  -1.72258676249414E-13
      1.17328960565518E-09
      8.00000000000000E-01   8.00000000000000E-01   0.00000000000000E+00  -2.36205214536558E-14   3.50271566195290E-07
     -8.09619735624758E-12   3.50263446377413E-07   2.34421746043516E-13   0.00000000000000E+00   0.00000000000000E+00
      0.00000000000000E+00  -9.71200355555332E-12  -1.97157799744156E-16  -7.92087057041645E-08  -7.92184179048779E-08
     -6.21471458594943E-14  -4.50000000000000E+01  -4.50000000000000E+01   0.00000000000000E+00  -9.56360690554803E-08
     -6.26118083629935E-15  -1.75408953155873E-07  -2.71045028472534E-07  -1.72274600184021E-13
      1.28425665382236E-09
      8.00000000000000E-01   8.00000000000000E-01   0.00000000000000E+00  -7.53981299164539E-13   3.49525653789471E-07
     -6.74928808994881E-12   3.49518150520082E-07   2.34441346419753E-13   0.00000000000000E+00   0.00000000000000E+00
      0.00000000000000E+00  -8.63271588365472E-12  -1.97157563678960E-16  -9.86082186307950E-08  -9.86168515438362E-08
     -6.21571226615756E-14  -4.50000000000000E+01  -4.50000000000000E+01   0.00000000000000E+00  -7.78289972755592E-08
     -6.26139976724373E-15  -1.73072295439287E-07  -2.50901298976246E-07  -1.72284223758177E-13
      1.36748193994775E-09
      8.00000000000000E-01   8.00000000000000E-01   0.00000000000000E+00  -1.64100152182010E-12   3.47211468229528E-07
     -6.01967562289760E-12   3.47203807552383E-07   2.34456073867821E-13   0.00000000000000E+00   0.00000000000000E+00
      0.00000000000000E+00  -7.35927726393200E-12  -1.97157148507871E-16  -1.11260514356462E-07  -1.11267873830883E-07
     -6.21659234891949E-14  -4.50000000000000E+01  -4.50000000000000E+01   0.00000000000000E+00  -6.46058375515824E-08
     -6.26153458939638E-15  -1.71330089908382E-07  -2.35935933721499E-07  -1.72290150378627E-13
      1.49231986913582E-09
      8.00000000000000E-01   8.00000000000000E-01   0.00000000000000E+00  -3.54509022774625E-12   3.39309762321422E-07
     -5.18094979335142E-12   3.39301036281401E-07   2.34477801642384E-13   0.00000000000000E+00   0.00000000000000E+00
      0.00000000000000E+00  -4.61308936932346E-12  -1.97155775488947E-16  -1.25490275744175E-07  -1.25494889030700E-07
     -6.21808076284199E-14  -4.50000000000000E+01  -4.50000000000000E+01   0.00000000000000E+00  -4.50724079384011E-08
     -6.26169026875630E-15  -1.68733733050610E-07  -2.13806147250702E-07  -1.72296994013965E-13
      1.58594831602688E-09
      8.00000000000000E-01   8.00000000000000E-01   0.00000000000000E+00  -5.37641218950611E-12   3.28847111466493E-07
     -4.68524921745721E-12   3.28837049805086E-07   2.34493429693249E-13   0.00000000000000E+00   0.00000000000000E+00
      0.00000000000000E+00  -1.94232314820875E-12  -1.97153780355994E-16  -1.31270912559523E-07  -1.31272855079825E-07
     -6.21928869637264E-14  -4.50000000000000E+01  -4.50000000000000E+01   0.00000000000000E+00  -3.07640206058029E-08
     -6.26177099508691E-15  -1.66800167857687E-07  -1.97564194725261E-07  -1.72300542729521E-13
      1.72639098636346E-09
      8.00000000000000E-01   8.00000000000000E-01   0.00000000000000E+00  -8.41117390731039E-12   3.04355670698075E-07
     -4.07523632983566E-12   3.04343184287838E-07   2.34514781959615E-13   0.00000000000000E+00   0.00000000000000E+00
      0.00000000000000E+00   2.62197124448823E-12  -1.97148086717592E-16  -1.30231778152455E-07  -1.30229156378359E-07
     -6.22113712781495E-14  -4.50000000000000E+01  -4.50000000000000E+01   0.00000000000000E+00  -1.01908917266248E-08
     -6.26183623994598E-15  -1.63923129921018E-07  -1.74114027909479E-07  -1.72303410681466E-13
      1.83172298911590E-09
      8.00000000000000E-01   8.00000000000000E-01   0.00000000000000E+00  -1.05398406894033E-11   2.78980140115205E-07
     -3.69383829729700E-12   2.78965906436219E-07   2.34528406842140E-13   0.00000000000000E+00   0.00000000000000E+00
      0.00000000000000E+00   6.00698294874184E-12  -1.97140678269152E-16  -1.21429379262676E-07  -1.21423372476868E-07
     -6.22246876218127E-14  -4.50000000000000E+01  -4.50000000000000E+01   0.00000000000000E+00   4.24232450833473E-09
     -6.26184326739194E-15  -1.61784852205842E-07  -1.57542533959351E-07  -1.72303719220328E-13
      1.98972099324456E-09
      8.00000000000000E-01   8.00000000000000E-01   0.00000000000000E+00  -1.26789178405955E-11   2.32078449849825E-07
     -3.20766745671522E-12   2.32062563264527E-07   2.34543578571038E-13   0.00000000000000E+00   0.00000000000000E+00
      0.00000000000000E+00   9.92149174507613E-12  -1.97122023582968E-16  -9.70791239045682E-08  -9.70692026099452E-08
     -6.22420813615639E-14  -4.50000000000000E+01  -4.50000000000000E+01   0.00000000000000E+00   2.36188534136473E-08
     -6.26179274315661E-15  -1.58612207806437E-07  -1.34993360654582E-07  -1.72301497209474E-13
      2.10821949634105E-09
      8.00000000000000E-01   8.00000000000000E-01   0.00000000000000E+00  -1.31036481963122E-11   1.93086409530954E-07
     -2.89636957012933E-12   1.93070409513188E-07   2.34550173306027E-13   0.00000000000000E+00   0.00000000000000E+00
      0.00000000000000E+00   1.14160139537754E-11  -1.97100469833962E-16  -7.28092413537050E-08  -7.27978255368517E-08
     -6.22522181820762E-14  -4.50000000000000E+01  -4.50000000000000E+01   0.00000000000000E+00   3.59903991368894E-08
     -6.26171218990022E-15  -1.56262976851513E-07  -1.20272583976336E-07  -1.72297955123951E-13
      2.28596725098579E-09
      8.00000000000000E-01   8.00000000000000E-01   0.00000000000000E+00  -1.18346450062137E-11   1.36313888117188E-07
     -2.49497043092919E-12   1.36299558501751E-07   2.34552047298051E-13   0.00000000000000E+00   0.00000000000000E+00
      0.00000000000000E+00   1.11410442705488E-11  -1.97053733868555E-16  -3.42229000322709E-08  -3.42117591850541E-08
     -6.22618323673486E-14  -4.50000000000000E+01  -4.50000000000000E+01   0.00000000000000E+00   5.07071241833551E-08
     -6.26153615313261E-15  -1.52794917238516E-07  -1.02087799316697E-07  -1.72290214930702E-13
      2.41927806696935E-09
      8.00000000000000E-01   8.00000000000000E-01   0.00000000000000E+00  -9.82919781095250E-12   9.94680052253773E-08
     -2.23633569111479E-12   9.94559396918752E-08   2.34547638831157E-13   0.00000000000000E+00   0.00000000000000E+00
      0.00000000000000E+00   9.42184659938178E-12  -1.97007372364665E-16  -8.05782086753969E-09  -8.04839921794768E-09
     -6.22647386398280E-14  -4.50000000000000E+01  -4.50000000000000E+01   0.00000000000000E+00   5.88347517574254E-08
     -6.26136978449201E-15  -1.50242285969983E-07  -9.14075404739275E-08  -1.72282900191329E-13
      2.61924429094468E-09
      8.00000000000000E-01   8.00000000000000E-01   0.00000000000000E+00  -6.40794955185401E-12   5.81138930081325E-08
     -1.90204837969213E-12   5.81055830102009E-08   2.34533790050133E-13   0.00000000000000E+00   0.00000000000000E+00
      0.00000000000000E+00   5.94573549847067E-12  -1.96923903449344E-16   2.11572737992445E-08   2.11632193378191E-08
     -6.22635268907545E-14  -4.50000000000000E+01  -4.50000000000000E+01   0.00000000000000E+00   6.72258802754352E-08
     -6.26108234996937E-15  -1.46494676362373E-07  -7.92688023480202E-08  -1.72270263159377E-13
      2.76921895892618E-09
      8.00000000000000E-01   8.00000000000000E-01   0.00000000000000E+00  -4.17419624236590E-12   3.79056581999418E-08
     -1.68648342280412E-12   3.78997975202766E-08   2.34519358315066E-13   0.00000000000000E+00   0.00000000000000E+00
      0.00000000000000E+00   3.49976371309675E-12  -1.96855521783725E-16   3.45223670100484E-08   3.45258665769060E-08
     -6.22594929919465E-14  -4.50000000000000E+01  -4.50000000000000E+01   0.00000000000000E+00   7.13145660157937E-08
     -6.26084583497596E-15  -1.43740223852130E-07  -7.24256640971825E-08  -1.72259865323121E-13
      2.88169995991231E-09
      8.00000000000000E-01   8.00000000000000E-01   0.00000000000000E+00  -2.89869573626538E-12   2.77379482425704E-08
     -1.54136599408466E-12   2.77335081808400E-08   2.34507129891891E-13   0.00000000000000E+00   0.00000000000000E+00
      0.00000000000000E+00   2.03979735605907E-12  -1.96804397414228E-16   4.03855943344988E-08   4.03876339350504E-08
     -6.22554156197102E-14  -4.50000000000000E+01  -4.50000000000000E+01   0.00000000000000E+00   7.35721641616614E-08
     -6.26066041969858E-15  -1.41693300016891E-07  -6.81211421158905E-08  -1.72251714272180E-13
      2.96606071065190E-09
      8.00000000000000E-01   8.00000000000000E-01   0.00000000000000E+00  -2.16337299502743E-12   2.22618688033184E-08
     -1.44079170584167E-12   2.22582646386175E-08   2.34497461923981E-13   0.00000000000000E+00   0.00000000000000E+00
      0.00000000000000E+00   1.19017870513083E-12  -1.96767492348298E-16   4.29448445698721E-08   4.29460345518098E-08
     -6.22520133281805E-14  -4.50000000000000E+01  -4.50000000000000E+01   0.00000000000000E+00   7.49541042240662E-08
     -6.26051788791686E-15  -1.40158397153976E-07  -6.52042991904273E-08  -1.72245448595802E-13
      3.09260183676129E-09
      8.00000000000000E-01   8.00000000000000E-01   0.00000000000000E+00  -1.37083442195214E-12   1.65343142846398E-08
     -1.30189173529426E-12   1.65316415584825E-08   2.34482496220815E-13   0.00000000000000E+00   0.00000000000000E+00
      0.00000000000000E+00   2.57972069175193E-13  -1.96716025204548E-16   4.46237901911652E-08   4.46240479665183E-08
     -6.22466432544926E-14  -4.50000000000000E+01  -4.50000000000000E+01   0.00000000000000E+00   7.66752758936781E-08
     -6.26029960017422E-15  -1.37830959158379E-07  -6.11556895250007E-08  -1.72235852966321E-13
      3.28241352592538E-09
      8.00000000000000E-01   8.00000000000000E-01   0.00000000000000E+00  -6.91153321629889E-13   1.15488554152049E-08
     -1.11758497178438E-12   1.15470466769115E-08   2.34459600973466E-13   0.00000000000000E+00   0.00000000000000E+00
      0.00000000000000E+00  -5.50539918526942E-13  -1.96649866422868E-16   4.39792763250115E-08   4.39787255884431E-08
     -6.22384953882763E-14  -4.50000000000000E+01  -4.50000000000000E+01   0.00000000000000E+00   7.86588169414520E-08
     -6.25996410409111E-15  -1.34184582946842E-07  -5.55257722653546E-08  -1.72221105585189E-13
      3.42477229279844E-09
      8.00000000000000E-01   8.00000000000000E-01   0.00000000000000E+00  -4.38520010104107E-13   9.46483400608315E-09
     -9.96246265264029E-13   9.46339923980779E-09   2.34442416364503E-13   0.00000000000000E+00   0.00000000000000E+00
      0.00000000000000E+00  -8.49597701913731E-13  -1.96609550243202E-16   4.20440214647303E-08   4.20431716704188E-08
     -6.22325862286521E-14  -4.50000000000000E+01  -4.50000000000000E+01   0.00000000000000E+00   7.97171348598315E-08
     -6.25970758370734E-15  -1.31223699510351E-07  -5.15065709102266E-08  -1.72209830135851E-13
      3.63831044310804E-09
      8.00000000000000E-01   8.00000000000000E-01   0.00000000000000E+00  -2.59031152467475E-13   7.53535509487981E-09
     -8.37723854073199E-13   7.53425833987327E-09   2.34417068755343E-13   0.00000000000000E+00   0.00000000000000E+00
      0.00000000000000E+00  -1.04429734872643E-12  -1.96562781180959E-16   3.81407814143315E-08   3.81397369204200E-08
     -6.22243534722306E-14  -4.50000000000000E+01  -4.50000000000000E+01   0.00000000000000E+00   8.04842710979353E-08
     -6.25931820310750E-15  -1.26158260098910E-07  -4.56739952602931E-08  -1.72192715283112E-13
      3.79846405584023E-09
      8.00000000000000E-01   8.00000000000000E-01   0.00000000000000E+00  -2.01928142148207E-13   6.56099565143263E-09
     -7.35238207531404E-13   6.56005848508295E-09   2.34398599850496E-13   0.00000000000000E+00   0.00000000000000E+00
      0.00000000000000E+00  -1.08049150345436E-12  -1.96536784352892E-16   3.48826401630152E-08   3.48815594749750E-08
     -6.22187611393439E-14  -4.50000000000000E+01  -4.50000000000000E+01   0.00000000000000E+00   8.02497198992422E-08
     -6.25902524050558E-15  -1.21691331600275E-07  -4.14416179600581E-08  -1.72179838711152E-13
      4.03869447493853E-09
      8.00000000000000E-01   8.00000000000000E-01   0.00000000000000E+00  -1.59525916727472E-13   5.41245408364036E-09
     -6.03966509606699E-13   5.41169059121403E-09   2.34372141382440E-13   0.00000000000000E+00   0.00000000000000E+00
      0.00000000000000E+00  -1.06094321724099E-12  -1.96508651056965E-16   2.99576855087936E-08   2.99566243690677E-08
     -6.22113635601568E-14  -4.50000000000000E+01  -4.50000000000000E+01   0.00000000000000E+00   7.82561375271865E-08
     -6.25859156727371E-15  -1.13624446228877E-07  -3.53683149602818E-08  -1.72160777822284E-13
      4.21886728926225E-09
      8.00000000000000E-01   8.00000000000000E-01   0.00000000000000E+00  -1.41109086707293E-13   4.69151523737874E-09
     -5.20923542952097E-13   4.69085320474908E-09   2.34353516107484E-13   0.00000000000000E+00   0.00000000000000E+00
      0.00000000000000E+00  -1.00961639390809E-12  -1.96494094521779E-16   2.63946344742935E-08   2.63936246614055E-08
     -6.22065841748003E-14  -4.50000000000000E+01  -4.50000000000000E+01   0.00000000000000E+00   7.53314352946177E-08
     -6.25827654189902E-15  -1.06415906902496E-07  -3.10844778661546E-08  -1.72146931932685E-13
      4.48912651074783E-09
      8.00000000000000E-01   8.00000000000000E-01   0.00000000000000E+00  -1.18960524633195E-13   3.75585448444495E-09
     -4.16906461118245E-13   3.75531861745919E-09   2.34328013121997E-13   0.00000000000000E+00   0.00000000000000E+00