DF-ISE text

Info {
  version   = 1.0
  type      = xyplot
  datasets  = [
    "time"
    "Ntop OuterVoltage" "Ntop InnerVoltage" "Ntop QuasiFermiPotential" "Ntop DisplacementCurrent" "Ntop eCurrent"
    "Ntop hCurrent" "Ntop TotalCurrent" "Ntop Charge" "Ptop OuterVoltage" "Ptop InnerVoltage"
    "Ptop QuasiFermiPotential" "Ptop DisplacementCurrent" "Ptop eCurrent" "Ptop hCurrent" "Ptop TotalCurrent"
    "Ptop Charge" "Pbot OuterVoltage" "Pbot InnerVoltage" "Pbot QuasiFermiPotential" "Pbot DisplacementCurrent"
    "Pbot eCurrent" "Pbot hCurrent" "Pbot TotalCurrent" "Pbot Charge" ]
  functions = [
    Time
    OuterVoltage InnerVoltage QuasiFermiPotential DisplacementCurrent eCurrent
    hCurrent TotalCurrent Charge OuterVoltage InnerVoltage
    QuasiFermiPotential DisplacementCurrent eCurrent hCurrent TotalCurrent
    Charge OuterVoltage InnerVoltage QuasiFermiPotential DisplacementCurrent
    eCurrent hCurrent TotalCurrent Charge ]
}

Data {
      1.00000000000000E-03
      8.00000000000000E-01   8.00000000000001E-01   0.00000000000000E+00   0.00000000000000E+00   1.40547162222169E-14
      2.78664726275737E-17   1.40825826948445E-14   4.87740900996535E-14   0.00000000000000E+00   0.00000000000000E+00
      0.00000000000000E+00   0.00000000000000E+00  -5.64196965890155E-17  -1.42042152001624E-15  -1.47684121660525E-15
     -2.85499598931557E-14  -1.00000000000000E-01  -9.99999999999998E-02   0.00000000000000E+00   0.00000000000000E+00
     -8.11245925866683E-16  -1.17944955523726E-14  -1.26057414782393E-14  -2.02241302064977E-14
      2.86666666666667E-03
      8.00000000000000E-01   8.00000000000001E-01   0.00000000000000E+00   0.00000000000000E+00   1.56274984102072E-14
      2.78151783737298E-17   1.56553135885809E-14   4.88239703334676E-14   0.00000000000000E+00   0.00000000000000E+00
      0.00000000000000E+00   0.00000000000000E+00  -5.64196962479530E-17  -1.41422693597704E-15  -1.47064663222499E-15
     -2.85497518800852E-14  -2.86666666666667E-01  -2.86666666666666E-01   0.00000000000000E+00   0.00000000000000E+00
     -8.13198845553124E-16  -1.33714681108028E-14  -1.41846669563559E-14  -2.02742184533823E-14
      6.43407407407407E-03
      8.00000000000000E-01   8.00000000000001E-01   0.00000000000000E+00   0.00000000000000E+00   1.83398615111228E-14
      2.79645199035290E-17   1.83678260310264E-14   4.89182607737042E-14   0.00000000000000E+00   0.00000000000000E+00
      0.00000000000000E+00   0.00000000000000E+00  -5.64196946743939E-17  -1.40405479709945E-15  -1.46047449177385E-15
     -2.85487922041166E-14  -6.43407407407407E-01  -6.43407407407408E-01   0.00000000000000E+00   0.00000000000000E+00
     -8.16899130268839E-16  -1.60904524089837E-14  -1.69073515392526E-14  -2.03694685695876E-14
      1.30932345679012E-02
      8.00000000000000E-01   8.00000000000001E-01   0.00000000000000E+00   0.00000000000000E+00   2.25813165781141E-14
      2.79873586702350E-17   2.26093039367844E-14   4.90850673356081E-14   0.00000000000000E+00   0.00000000000000E+00
      0.00000000000000E+00   0.00000000000000E+00  -5.64196815408454E-17  -1.39115431338351E-15  -1.44757399492436E-15
     -2.85407836741553E-14  -1.30932345679012E+00  -1.30932345679012E+00   0.00000000000000E+00   0.00000000000000E+00
     -8.23651878819205E-16  -2.03380780630408E-14  -2.11617299418600E-14  -2.05442836614528E-14
      2.30932345679012E-02
      8.00000000000000E-01   8.00000000000001E-01   0.00000000000000E+00   0.00000000000000E+00   2.69535368046638E-14
      2.77090106697845E-17   2.69812458153336E-14   4.92750454155805E-14   0.00000000000000E+00   0.00000000000000E+00
      0.00000000000000E+00   0.00000000000000E+00  -5.64195626562209E-17  -1.39925438375521E-15  -1.45567394641143E-15
     -2.84683051289979E-14  -2.30932345679012E+00  -2.30932345679012E+00   0.00000000000000E+00   0.00000000000000E+00
     -8.33712806101376E-16  -2.46918590628208E-14  -2.55255718689222E-14  -2.08067402865827E-14
      3.30932345679012E-02
      8.00000000000000E-01   8.00000000000001E-01   0.00000000000000E+00   0.00000000000000E+00   3.01716292328671E-14
      2.67810645299318E-17   3.01984102973970E-14   4.93109152046345E-14   0.00000000000000E+00   0.00000000000000E+00
      0.00000000000000E+00   0.00000000000000E+00  -5.64191711766831E-17  -1.48285800179607E-15  -1.53927717297275E-15
     -2.82296317119840E-14  -3.30932345679012E+00  -3.30932345679012E+00   0.00000000000000E+00   0.00000000000000E+00
     -8.44151849335432E-16  -2.78149812750889E-14  -2.86591331244243E-14  -2.10812834926504E-14
      4.30932345679012E-02
      8.00000000000000E-01   8.00000000000001E-01   0.00000000000000E+00   0.00000000000000E+00   3.18104922337432E-14
      2.78849645734940E-17   3.18383771983167E-14   4.92406699673081E-14   0.00000000000000E+00   0.00000000000000E+00
      0.00000000000000E+00   0.00000000000000E+00  -5.64185635432774E-17  -1.61425390476988E-15  -1.67067246831316E-15
     -2.78589652849314E-14  -4.30932345679012E+00  -4.30932345679012E+00   0.00000000000000E+00   0.00000000000000E+00
     -8.55484466070973E-16  -2.93122202639327E-14  -3.01677047300036E-14  -2.13817046823766E-14
      5.30932345679012E-02
      8.00000000000000E-01   8.00000000000001E-01   0.00000000000000E+00   0.00000000000000E+00   3.25292575997119E-14
      2.80590562460786E-17   3.25573166559580E-14   4.91293564057028E-14   0.00000000000000E+00   0.00000000000000E+00
      0.00000000000000E+00   0.00000000000000E+00  -5.64178232964583E-17  -1.66211221579863E-15  -1.71853003909509E-15
     -2.74121762693825E-14  -5.30932345679012E+00  -5.30932345679012E+00   0.00000000000000E+00   0.00000000000000E+00
     -8.68034278752730E-16  -2.99707523381101E-14  -3.08387866168629E-14  -2.17171801363202E-14
      6.30932345679012E-02
      8.00000000000000E-01   8.00000000000001E-01   0.00000000000000E+00   0.00000000000000E+00   3.30135949729251E-14
      2.79784558164210E-17   3.30415734287415E-14   4.90054341958456E-14   0.00000000000000E+00   0.00000000000000E+00
      0.00000000000000E+00   0.00000000000000E+00  -5.64169760272781E-17  -1.65857115148603E-15  -1.71498812751331E-15
     -2.69097801838602E-14  -6.30932345679012E+00  -6.30932345679012E+00   0.00000000000000E+00   0.00000000000000E+00
     -8.82064658669771E-16  -3.04445206425585E-14  -3.13265853012283E-14  -2.20956540119854E-14
      7.30932345679012E-02
      8.00000000000000E-01   8.00000000000001E-01   0.00000000000000E+00   0.00000000000000E+00   3.33974546778015E-14
      2.79225260583713E-17   3.34253772038599E-14   4.88852906074974E-14   0.00000000000000E+00   0.00000000000000E+00
      0.00000000000000E+00   0.00000000000000E+00  -5.64160256842003E-17  -1.64404356578530E-15  -1.70045959146950E-15
     -2.63585291055830E-14  -7.30932345679012E+00  -7.30932345679014E+00   0.00000000000000E+00   0.00000000000000E+00
     -8.97885741709443E-16  -3.08270318706809E-14  -3.17249176123903E-14  -2.25267615019144E-14
      8.30932345679012E-02
      8.00000000000000E-01   8.00000000000001E-01   0.00000000000000E+00   0.00000000000000E+00   3.36755231705050E-14
      2.79145934577429E-17   3.37034377639628E-14   4.87860720772005E-14   0.00000000000000E+00   0.00000000000000E+00
      0.00000000000000E+00   0.00000000000000E+00  -5.64149752854772E-17  -1.62473811953858E-15  -1.68115309482406E-15
     -2.57635383979723E-14  -8.30932345679012E+00  -8.30932345679014E+00   0.00000000000000E+00   0.00000000000000E+00
     -9.15873831518626E-16  -3.11064108376201E-14  -3.20222846691388E-14  -2.30225336792281E-14
      9.30932345679012E-02
      8.00000000000000E-01   8.00000000000001E-01   0.00000000000000E+00   0.00000000000000E+00   3.38909849033066E-14
      2.78969007920568E-17   3.39188818040986E-14   4.87244325381589E-14   0.00000000000000E+00   0.00000000000000E+00
      0.00000000000000E+00   0.00000000000000E+00  -5.64138283567003E-17  -1.58606715193283E-15  -1.64248098028953E-15
     -2.51269997428774E-14  -9.30932345679012E+00  -9.30932345679013E+00   0.00000000000000E+00   0.00000000000000E+00
     -9.36463088386273E-16  -3.13399377354228E-14  -3.22764008238091E-14  -2.35974327952814E-14
      1.03093234567901E-01
      8.00000000000000E-01   8.00000000000001E-01   0.00000000000000E+00   0.00000000000000E+00   3.40452965196976E-14
      2.78645564629397E-17   3.40731610761606E-14   4.87230126304604E-14   0.00000000000000E+00   0.00000000000000E+00
      0.00000000000000E+00   0.00000000000000E+00  -5.64126012610849E-17  -1.42050676830626E-15  -1.47691936956735E-15
     -2.44543475272275E-14  -1.03093234567901E+01  -1.03093234567901E+01   0.00000000000000E+00   0.00000000000000E+00
     -9.60144115742685E-16  -3.16360975908505E-14  -3.25962417065932E-14  -2.42686651032328E-14
      1.13093234567901E-01
      8.00000000000000E-01   8.00000000000001E-01   0.00000000000000E+00   0.00000000000000E+00   3.41837227431849E-14
      2.79017948773263E-17   3.42116245380622E-14   4.88118011134364E-14   0.00000000000000E+00   0.00000000000000E+00
      0.00000000000000E+00   0.00000000000000E+00  -5.64113270860626E-17   3.72349059159242E-16   3.15937732073180E-16
     -2.37569089316441E-14  -1.13093234567901E+01  -1.13093234567901E+01   0.00000000000000E+00   0.00000000000000E+00
     -9.87403326868172E-16  -3.35401589432671E-14  -3.45275622701353E-14  -2.50548921817923E-14
      1.23093234567901E-01
      8.00000000000000E-01   8.00000000000001E-01   0.00000000000000E+00   0.00000000000000E+00   3.43394148852773E-14
      2.78857871931987E-17   3.43673006724705E-14   4.90081095421818E-14   0.00000000000000E+00  -9.18447372075268E-17
      0.00000000000000E+00   0.00000000000000E+00  -5.64100286328810E-17   2.10816380360822E-14   2.10252280074493E-14
     -2.30387550391643E-14  -1.23093234567901E+01  -1.23093234567901E+01   0.00000000000000E+00   0.00000000000000E+00
     -1.01847657334912E-15  -5.43740521065705E-14  -5.53925286799197E-14  -2.59693545030178E-14
      1.33093234567901E-01
      8.00000000000000E-01   8.00000000000001E-01   0.00000000000000E+00   0.00000000000000E+00   3.44385690198355E-14
      2.79802063378671E-17   3.44665492261734E-14   4.93088587576832E-14   0.00000000000000E+00  -2.75534211622580E-16
      0.00000000000000E+00   0.00000000000000E+00  -5.64087133257389E-17   2.27615315433055E-13   2.27558906719729E-13
     -2.22967610897633E-14  -1.33093234567901E+01  -1.33093234567901E+01   0.00000000000000E+00   0.00000000000000E+00
     -1.05310544135257E-15  -2.60972350504550E-13  -2.62025455945902E-13  -2.70120976679201E-14
      1.43093234567901E-01
      8.00000000000000E-01   8.00000000000001E-01   0.00000000000000E+00   0.00000000000000E+00   3.44657342686889E-14
      2.76850937302926E-17   3.44934193624192E-14   4.96945392877368E-14   0.00000000000000E+00  -2.02058421856559E-15
      0.00000000000000E+00   0.00000000000000E+00  -5.64073842958527E-17   1.93296421959119E-12   1.93290781220690E-12
     -2.15276024348986E-14  -1.43093234567901E+01  -1.43093234567901E+01   0.00000000000000E+00   0.00000000000000E+00
     -1.09049338554508E-15  -1.96631073818377E-12  -1.96740123156932E-12  -2.81669368528382E-14
      1.53093234567901E-01
      8.00000000000000E-01   8.00000000000001E-01   0.00000000000000E+00   0.00000000000000E+00   3.44634605880713E-14
      2.79358225162245E-17   3.44913964105875E-14   5.01351136884879E-14   0.00000000000000E+00  -1.35930211067140E-14
      0.00000000000000E+00   0.00000000000000E+00  -5.64060453211232E-17   1.35775610959311E-11   1.35775046898858E-11
     -2.07288640480122E-14  -1.53093234567901E+01  -1.53093234567901E+01   0.00000000000000E+00   0.00000000000000E+00
     -1.12953362056732E-15  -1.36108665526758E-11  -1.36119960862964E-11  -2.94062496404757E-14
      1.63093234567901E-01
      8.00000000000000E-01   8.00000000000001E-01   0.00000000000000E+00   0.00000000000000E+00   3.44353629211434E-14
      2.78030117174629E-17   3.44631659328608E-14   5.05963592867909E-14   0.00000000000000E+00  -8.15581266402838E-14
      0.00000000000000E+00   0.00000000000000E+00  -5.64046958512583E-17   8.15707396094440E-11   8.15706832047482E-11
     -1.98958665568449E-14  -1.63093234567901E+01  -1.63093234567900E+01   0.00000000000000E+00   0.00000000000000E+00
     -1.16915787246433E-15  -8.16039772128085E-11  -8.16051463706809E-11  -3.07004927299460E-14
      1.73093234567901E-01
      8.00000000000000E-01   8.00000000000001E-01   0.00000000000000E+00   0.00000000000000E+00   3.42598777276581E-14
      2.78621988230064E-17   3.42877399264811E-14   5.10528435487811E-14   0.00000000000000E+00  -4.33966383305564E-13
      0.00000000000000E+00   0.00000000000000E+00  -5.64033272042043E-17   4.33969967416463E-10   4.33969911013136E-10
     -1.90263993452473E-14  -1.73093234567901E+01  -1.73093234567897E+01   0.00000000000000E+00   0.00000000000000E+00
     -1.20859109881895E-15  -4.34002990161963E-10  -4.34004198753062E-10  -3.20264442035339E-14
      1.83093234567901E-01
      8.00000000000000E-01   8.00000000000001E-01   0.00000000000000E+00   0.00000000000000E+00   3.34034692828962E-14
      2.79134544778415E-17   3.34313827373741E-14   5.15032667338509E-14   0.00000000000000E+00  -2.06926192928558E-12
      0.00000000000000E+00   0.00000000000000E+00  -5.64018437025132E-17   2.06925100446811E-09   2.06925094806627E-09
     -1.81318922835443E-14  -1.83093234567901E+01  -1.83093234567881E+01   0.00000000000000E+00   0.00000000000000E+00
     -1.24744077166228E-15  -2.06928313200823E-09  -2.06928437944901E-09  -3.33713744503065E-14
      1.93093234567901E-01
      8.00000000000000E-01   8.00000000000001E-01   0.00000000000000E+00   0.00000000000000E+00   3.09123542344652E-14
      2.79100687328352E-17   3.09402643031980E-14   5.19649474548047E-14   0.00000000000000E+00  -8.76005919011669E-12
      0.00000000000000E+00   0.00000000000000E+00  -5.63997819932641E-17   8.76006926404864E-09   8.76006920764886E-09
     -1.72324110208173E-14  -1.93093234567901E+01  -1.93093234567814E+01   0.00000000000000E+00   0.00000000000000E+00
     -1.28563468021065E-15  -8.76009886227849E-09  -8.76010014791317E-09  -3.47325364339873E-14
      2.03093234567901E-01
      8.00000000000000E-01   8.00000000000001E-01   0.00000000000000E+00   0.00000000000000E+00   2.65746069326035E-14
      2.79416281641241E-17   2.66025485607676E-14   5.24696501200789E-14   0.00000000000000E+00  -3.20745701960357E-11
      0.00000000000000E+00   0.00000000000000E+00  -5.63963076858765E-17   3.20745202896484E-08   3.20745202332521E-08
     -1.63509103300278E-14  -2.03093234567901E+01  -2.03093234567580E+01   0.00000000000000E+00   0.00000000000000E+00
     -1.32342033339052E-15  -3.20745455123804E-08  -3.20745468358007E-08  -3.61187397900511E-14
      2.13093234567901E-01
      8.00000000000000E-01   8.00000000000001E-01   0.00000000000000E+00   0.00000000000000E+00   2.17095713621110E-14
      2.79546801115479E-17   2.17375260422226E-14   5.30722572545541E-14   0.00000000000000E+00  -9.75793389092903E-11
      0.00000000000000E+00   0.00000000000000E+00  -5.63905205696569E-17   9.75793069852960E-08   9.75793069289055E-08
     -1.55174873674534E-14  -2.13093234567901E+01  -2.13093234566926E+01   0.00000000000000E+00   0.00000000000000E+00
     -1.36143497661494E-15  -9.75793273049967E-08  -9.75793286664317E-08  -3.75547698871008E-14
      2.23093234567901E-01
      8.00000000000000E-01   8.00000000000001E-01   0.00000000000000E+00   0.00000000000000E+00   1.77553896425689E-14
      2.79444904289864E-17   1.77833341329978E-14   5.38344290640546E-14   0.00000000000000E+00  -2.40265648845416E-10
      0.00000000000000E+00   0.00000000000000E+00  -5.63811009203060E-17   2.40265656827354E-07   2.40265656770972E-07
     -1.47611519280958E-14  -2.23093234567901E+01  -2.23093234565498E+01   0.00000000000000E+00   0.00000000000000E+00
     -1.40044042635597E-15  -2.40265673153866E-07  -2.40265674554306E-07  -3.90732771359588E-14
      2.33093234567901E-01
      8.00000000000000E-01   8.00000000000001E-01   0.00000000000000E+00   0.00000000000000E+00   1.51092577689360E-14
      2.80760015072771E-17   1.51373337704433E-14   5.47858977518915E-14   0.00000000000000E+00  -4.85727689232559E-10
      0.00000000000000E+00   0.00000000000000E+00  -5.63658118189130E-17   4.85727607265678E-07   4.85727607209313E-07
     -1.40929791862821E-14  -2.33093234567901E+01  -2.33093234563044E+01   0.00000000000000E+00   0.00000000000000E+00
     -1.44075802922642E-15  -4.85727620905887E-07  -4.85727622346645E-07  -4.06929185656094E-14
      2.43093234567901E-01
      8.00000000000000E-01   8.00000000000001E-01   0.00000000000000E+00   0.00000000000000E+00   1.33569107964974E-14
      2.80310369478194E-17   1.33849418334452E-14   5.59159669524274E-14   0.00000000000000E+00  -8.40635224886730E-10
      0.00000000000000E+00   0.00000000000000E+00  -5.63414365090176E-17   8.40635254078367E-07   8.40635254022025E-07
     -1.35054305986246E-14  -2.43093234567901E+01  -2.43093234559495E+01   0.00000000000000E+00   0.00000000000000E+00
     -1.48213864711234E-15  -8.40635265924825E-07  -8.40635267406963E-07  -4.24105363538027E-14
      2.53093234567901E-01
      8.00000000000000E-01   8.00000000000001E-01   0.00000000000000E+00   0.00000000000000E+00   1.20764427960297E-14
      2.80127867383304E-17   1.21044555827680E-14   5.71955342582271E-14   0.00000000000000E+00  -1.29963269733662E-09
      0.00000000000000E+00   0.00000000000000E+00  -5.63042885983239E-17   1.29963271439536E-06   1.29963271433905E-06
     -1.29840046245264E-14  -2.53093234567901E+01  -2.53093234554904E+01   0.00000000000000E+00   0.00000000000000E+00
     -1.52408791941946E-15  -1.29963272491941E-06  -1.29963272644350E-06  -4.42115296337007E-14
      2.63093234567901E-01
      8.00000000000000E-01   8.00000000000001E-01   0.00000000000000E+00   0.00000000000000E+00   1.10523862512209E-14
      2.80367555777209E-17   1.10804230067986E-14   5.85946668246457E-14   0.00000000000000E+00  -1.85367321627782E-09
      0.00000000000000E+00   0.00000000000000E+00  -5.62506652998532E-17   1.85367314397928E-06   1.85367314392303E-06
     -1.25149074258548E-14  -2.63093234567901E+01  -2.63093234549365E+01   0.00000000000000E+00   0.00000000000000E+00
     -1.56613111562344E-15  -1.85367315343731E-06  -1.85367315500344E-06  -4.60797593987908E-14
      2.73093234567901E-01
      8.00000000000000E-01   8.00000000000001E-01   0.00000000000000E+00   0.00000000000000E+00   1.01967064469622E-14
      2.80663122482541E-17   1.02247727592104E-14   6.00883237221374E-14   0.00000000000000E+00  -2.49378869419043E-09
      0.00000000000000E+00   0.00000000000000E+00  -5.61770585395118E-17   2.49378875738885E-06   2.49378875733268E-06
     -1.20870077297602E-14  -2.73093234567901E+01  -2.73093234542964E+01   0.00000000000000E+00   0.00000000000000E+00
     -1.60789796859539E-15  -2.49378876594955E-06  -2.49378876755744E-06  -4.80013159923772E-14
      2.83093234567901E-01
      8.00000000000000E-01   8.00000000000001E-01   0.00000000000000E+00   0.00000000000000E+00   9.47402473105401E-15
      2.80838120135000E-17   9.50210854306751E-15   6.16567638001130E-14   0.00000000000000E+00  -3.21213402915639E-09
      0.00000000000000E+00   0.00000000000000E+00  -5.60801833199167E-17   3.21213402806328E-06   3.21213402800720E-06
     -1.16916626297629E-14  -2.83093234567901E+01  -2.83093234535780E+01   0.00000000000000E+00   0.00000000000000E+00
     -1.64912322060115E-15  -3.21213403586018E-06  -3.21213403750931E-06  -4.99651011703500E-14
      2.93093234567901E-01
      8.00000000000000E-01   8.00000000000001E-01   0.00000000000000E+00   0.00000000000000E+00   8.86721983624325E-15
      2.80983434830002E-17   8.89531817972625E-15   6.32847432499649E-14   0.00000000000000E+00  -4.00212964789164E-09
      0.00000000000000E+00   0.00000000000000E+00  -5.59569048250636E-17   4.00212966355053E-06   4.00212966349457E-06
     -1.13222313345424E-14  -2.93093234567901E+01  -2.93093234527880E+01   0.00000000000000E+00   0.00000000000000E+00
     -1.68962676613111E-15  -4.00212967070026E-06  -4.00212967238988E-06  -5.19625119154224E-14
      3.03093234567901E-01
      8.00000000000000E-01   8.00000000000001E-01   0.00000000000000E+00   0.00000000000000E+00   8.36313842143943E-15
      2.81242719701413E-17   8.39126269340957E-15   6.49606626825123E-14   0.00000000000000E+00  -4.85838206004840E-09
      0.00000000000000E+00   0.00000000000000E+00  -5.58041556410345E-17   4.85838210441681E-06   4.85838210436101E-06
     -1.09736707897935E-14  -3.03093234567901E+01  -3.03093234519318E+01   0.00000000000000E+00   0.00000000000000E+00
     -1.72929334614716E-15  -4.85838211102297E-06  -4.85838211275226E-06  -5.39869918927188E-14
      3.13093234567901E-01
      8.00000000000000E-01   8.00000000000001E-01   0.00000000000000E+00   0.00000000000000E+00   7.94742926378784E-15
      2.81284335834172E-17   7.97555769737126E-15   6.66758337604195E-14   0.00000000000000E+00  -5.77654838722782E-09
      0.00000000000000E+00   0.00000000000000E+00  -5.56189067634052E-17   5.77654841544690E-06   5.77654841539128E-06
     -1.06422156744785E-14  -3.13093234567901E+01  -3.13093234510136E+01   0.00000000000000E+00   0.00000000000000E+00
     -1.76805565474218E-15  -5.77654842159878E-06  -5.77654842336683E-06  -5.60336180859408E-14
      3.23093234567901E-01
      8.00000000000000E-01   8.00000000000001E-01   0.00000000000000E+00   0.00000000000000E+00   7.60441213641532E-15
      2.81583523787578E-17   7.63257048879407E-15   6.84238572302859E-14   0.00000000000000E+00  -6.75318417625039E-09
      0.00000000000000E+00   0.00000000000000E+00  -5.53982139968915E-17   6.75318420965108E-06   6.75318420959569E-06
     -1.03251116852704E-14  -3.23093234567901E+01  -3.23093234500369E+01   0.00000000000000E+00   0.00000000000000E+00
     -1.80588097586192E-15  -6.75318421542237E-06  -6.75318421722825E-06  -5.80987455450157E-14
      3.33093234567901E-01
      8.00000000000000E-01   8.00000000000001E-01   0.00000000000000E+00   0.00000000000000E+00   7.31884394103523E-15
      2.81880097559207E-17   7.34703195079115E-15   7.02000932461633E-14   0.00000000000000E+00  -7.78558524251851E-09
      0.00000000000000E+00   0.00000000000000E+00  -5.51393293434176E-17   7.78558521095738E-06   7.78558521090224E-06
     -1.00203862247028E-14  -3.33093234567901E+01  -3.33093234490045E+01   0.00000000000000E+00   0.00000000000000E+00
     -1.84276082864376E-15  -7.78558521640650E-06  -7.78558521824926E-06  -6.01797070214605E-14
      3.43093234567901E-01
      8.00000000000000E-01   8.00000000000001E-01   0.00000000000000E+00   0.00000000000000E+00   7.07729259003607E-15
      2.82071135976398E-17   7.10549970363371E-15   7.20012086499520E-14   0.00000000000000E+00  -8.87162712541585E-09
      0.00000000000000E+00   0.00000000000000E+00  -5.48398488437894E-17   8.87162715844260E-06   8.87162715838776E-06
     -9.72664844049140E-15  -3.43093234567901E+01  -3.43093234479185E+01   0.00000000000000E+00   0.00000000000000E+00
     -1.87870305073982E-15  -8.87162716361456E-06  -8.87162716549326E-06  -6.22745602094607E-14
      3.53093234567901E-01
      8.00000000000000E-01   8.00000000000001E-01   0.00000000000000E+00   0.00000000000000E+00   6.86857530108314E-15
      2.82286730880044E-17   6.89680397417114E-15   7.38247916820872E-14   0.00000000000000E+00  -1.00096089522541E-08
      0.00000000000000E+00   0.00000000000000E+00  -5.44978589501222E-17   1.00096089448622E-05   1.00096089448077E-05
     -9.44291492988223E-15  -3.53093234567901E+01  -3.53093234467806E+01   0.00000000000000E+00   0.00000000000000E+00
     -1.91372583763195E-15  -1.00096089497908E-05  -1.00096089517045E-05  -6.43818767522049E-14
      3.63093234567901E-01
      8.00000000000000E-01   8.00000000000001E-01   0.00000000000000E+00   0.00000000000000E+00   6.68403982351272E-15
      2.82040118172488E-17   6.71224383532997E-15   7.56690329029621E-14   0.00000000000000E+00  -1.11981072214511E-08
      0.00000000000000E+00   0.00000000000000E+00  -5.41120448250887E-17   1.11981071829529E-05   1.11981071828987E-05
     -9.16846207624674E-15  -3.63093234567901E+01  -3.63093234455921E+01   0.00000000000000E+00   0.00000000000000E+00
     -1.94785338016496E-15  -1.11981071876631E-05  -1.11981071896110E-05  -6.65005708267154E-14
      3.73093234567901E-01
      8.00000000000000E-01   8.00000000000001E-01   0.00000000000000E+00   0.00000000000000E+00   6.51784255555833E-15
      2.82467130659174E-17   6.54608926862425E-15   7.75324771558502E-14   0.00000000000000E+00  -1.24358530979626E-08
      0.00000000000000E+00   0.00000000000000E+00  -5.36817358102095E-17   1.24358531161703E-05   1.24358531161166E-05
     -8.90270930138089E-15  -3.73093234567901E+01  -3.73093234443542E+01   0.00000000000000E+00   0.00000000000000E+00
     -1.98111283575301E-15  -1.24358531206816E-05  -1.24358531226627E-05  -6.86297678544690E-14
      3.83093234567901E-01
      8.00000000000000E-01   8.00000000000001E-01   0.00000000000000E+00   0.00000000000000E+00   6.36665334014813E-15
      2.82986823620133E-17   6.39495202251014E-15   7.94138503056299E-14   0.00000000000000E+00  -1.37216413951468E-08
      0.00000000000000E+00   0.00000000000000E+00  -5.32068814197372E-17   1.37216414241303E-05   1.37216414240771E-05
     -8.64513699120947E-15  -3.83093234567901E+01  -3.83093234430685E+01   0.00000000000000E+00   0.00000000000000E+00
     -2.01353239851046E-15  -1.37216414284585E-05  -1.37216414304721E-05  -7.07687133144204E-14
      3.93093234567901E-01
      8.00000000000000E-01   8.00000000000001E-01   0.00000000000000E+00   0.00000000000000E+00   6.22877485024237E-15
      2.83209284694569E-17   6.25709577871183E-15   8.13119565629211E-14   0.00000000000000E+00  -1.50542746413199E-08
      0.00000000000000E+00   0.00000000000000E+00  -5.26879693701957E-17   1.50542746079008E-05   1.50542746078481E-05
     -8.39523854069494E-15  -3.93093234567901E+01  -3.93093234417359E+01   0.00000000000000E+00   0.00000000000000E+00
     -2.04514021830619E-15  -1.50542746120601E-05  -1.50542746141052E-05  -7.29167180222262E-14
      4.03093234567901E-01
      8.00000000000000E-01   8.00000000000001E-01   0.00000000000000E+00   0.00000000000000E+00   6.10322622700664E-15
     -2.09391450126473E-17   6.08228708199399E-15   8.32256327749392E-14   0.00000000000000E+00  -1.64325392001247E-08
      0.00000000000000E+00   0.00000000000000E+00  -5.21259080720052E-17   1.64325392800450E-05   1.64325392799929E-05
     -8.15250064049822E-15  -4.03093234567901E+01  -4.03093234403577E+01   0.00000000000000E+00   0.00000000000000E+00
     -2.07596390539619E-15  -1.64325392839992E-05  -1.64325392860752E-05  -7.50731321344411E-14
      4.13093234567901E-01
      8.00000000000000E-01   8.00000000000001E-01   0.00000000000000E+00   0.00000000000000E+00   5.98916270666307E-15
     -1.93192058938762E-17   5.96984350076919E-15   8.51537406884376E-14   0.00000000000000E+00  -1.78552054542192E-08
      0.00000000000000E+00   0.00000000000000E+00  -5.15218933535277E-17   1.78552054971490E-05   1.78552054970975E-05
     -7.91640264302331E-15  -4.13093234567901E+01  -4.13093234389350E+01   0.00000000000000E+00   0.00000000000000E+00
     -2.10603037902834E-15  -1.78552055009613E-05  -1.78552055030673E-05  -7.72373380454142E-14
      4.23093234567901E-01
      8.00000000000000E-01   8.00000000000001E-01   0.00000000000000E+00   0.00000000000000E+00   5.88564283839436E-15
     -1.77111153388390E-17   5.86793172305553E-15   8.70951787843745E-14   0.00000000000000E+00  -1.93210390103355E-08
      0.00000000000000E+00   0.00000000000000E+00  -5.08772854620065E-17   1.93210389530050E-05   1.93210389529541E-05
     -7.68642576402294E-15  -4.23093234567901E+01  -4.23093234374692E+01   0.00000000000000E+00   0.00000000000000E+00
     -2.13536587522003E-15  -1.93210389566867E-05  -1.93210389588220E-05  -7.94087530203511E-14
      4.33093234567901E-01
      8.00000000000000E-01   8.00000000000001E-01   0.00000000000000E+00   0.00000000000000E+00   5.79160914202597E-15
     -1.31920334292551E-17   5.77841710859671E-15   8.90488999609166E-14   0.00000000000000E+00  -2.08288175987108E-08
      0.00000000000000E+00   0.00000000000000E+00  -5.01934952561679E-17   2.08288176127945E-05   2.08288176127443E-05
     -7.46206507169229E-15  -4.33093234567901E+01  -4.33093234359613E+01   0.00000000000000E+00   0.00000000000000E+00
     -2.16399599815013E-15  -2.08288176163587E-05  -2.08288176185227E-05  -8.15868348892240E-14
      4.43093234567901E-01
      8.00000000000000E-01   8.00000000000001E-01   0.00000000000000E+00   0.00000000000000E+00   5.70595705220187E-15
     -6.48565286008658E-18   5.69947139934179E-15   9.10139270886984E-14   0.00000000000000E+00  -2.23773474214509E-08
      0.00000000000000E+00   0.00000000000000E+00  -4.94718939985436E-17   2.23773474023752E-05   2.23773474023258E-05
     -7.24284010816140E-15  -4.43093234567901E+01  -4.43093234344127E+01   0.00000000000000E+00   0.00000000000000E+00
     -2.19194575894337E-15  -2.23773474058333E-05  -2.23773474080252E-05  -8.37710869805371E-14
      4.53093234567901E-01
      8.00000000000000E-01   8.00000000000001E-01   0.00000000000000E+00   0.00000000000000E+00   5.62761570037673E-15
      8.78797314440114E-19   5.62849449769117E-15   9.29893631415200E-14   0.00000000000000E+00  -2.39654743575880E-08
      0.00000000000000E+00   0.00000000000000E+00  -4.87137438282450E-17   2.39654743764561E-05   2.39654743764074E-05
     -7.02830240339243E-15  -4.53093234567901E+01  -4.53093234328246E+01   0.00000000000000E+00   0.00000000000000E+00
     -2.21923958485523E-15  -2.39654743798166E-05  -2.39654743820358E-05  -8.59610607381275E-14
      4.63093234567901E-01
      8.00000000000000E-01   8.00000000000001E-01   0.00000000000000E+00   0.00000000000000E+00   5.55560955795098E-15
      7.71805364834954E-18   5.56332761159933E-15   9.49743955283355E-14   0.00000000000000E+00  -2.55920927801756E-08