DF-ISE text

Info {
  version   = 1.0
  type      = xyplot
  datasets  = [
    "frequency"
    "v(Ntop)" "v(Ptop)" "v(Pbot)" "a(Ntop,Ntop)" "c(Ntop,Ntop)"
    "a(Ntop,Ptop)" "c(Ntop,Ptop)" "a(Ntop,Pbot)" "c(Ntop,Pbot)" "a(Ptop,Ntop)"
    "c(Ptop,Ntop)" "a(Ptop,Ptop)" "c(Ptop,Ptop)" "a(Ptop,Pbot)" "c(Ptop,Pbot)"
    "a(Pbot,Ntop)" "c(Pbot,Ntop)" "a(Pbot,Ptop)" "c(Pbot,Ptop)" "a(Pbot,Pbot)"
    "c(Pbot,Pbot)" ]
  functions = [
    Frequency
    Voltage Voltage Voltage Admittance Capacitance
    Admittance Capacitance Admittance Capacitance Admittance
    Capacitance Admittance Capacitance Admittance Capacitance
    Admittance Capacitance Admittance Capacitance Admittance
    Capacitance ]
}

Data {
      1.00000000000000E+04
      8.00000000000000E-01   0.00000000000000E+00  -1.00000000000000E-01   0.00000000000000E+00   1.50592722956485E-14
     -1.89365746685947E-14  -1.25016173951405E-14  -2.68514626114459E-14  -2.55764055160081E-15  -1.89555005086434E-14
     -1.25016173337124E-14   0.00000000000000E+00   1.25024254722132E-14   4.89259765543065E-15  -8.07845868693126E-19
     -2.68456434958302E-14  -2.55764056972678E-15   4.86552103014083E-15  -8.07851035395599E-19   0.00000000000000E+00
      2.55844839650549E-15
      1.00000000000000E+04
      8.00000000000000E-01   0.00000000000000E+00  -2.86666666666667E-01   0.00000000000000E+00   1.48782203060840E-14
     -1.86254818012966E-14  -1.24999160243214E-14  -2.22370916008336E-14  -2.37831650863601E-15  -1.86288643921436E-14
     -1.24999160105240E-14   0.00000000000000E+00   1.25013981621603E-14   4.55365811113135E-15  -1.48236599204624E-18
     -2.22187786849161E-14  -2.37831652571120E-15   4.53513762983146E-15  -1.48237248643676E-18   0.00000000000000E+00
      2.37979887312805E-15
      1.00000000000000E+04
      8.00000000000000E-01   0.00000000000000E+00  -6.43407407407407E-01   0.00000000000000E+00   1.46051026007656E-14
     -1.82083724613737E-14  -1.24922686521034E-14  -1.69747165525896E-14  -2.11283034890187E-15  -1.81812746286409E-14
     -1.24922687238890E-14   0.00000000000000E+00   1.24966345112122E-14   4.05254487894946E-15  -4.36556893149774E-18
     -1.69853942285293E-14  -2.11283033838673E-15   4.07526961665119E-15  -4.36557647287874E-18   1.51920465508412E-13
      2.11719591929096E-15
      1.00000000000000E+04
      8.00000000000000E-01   0.00000000000000E+00  -1.30932345679012E+00   0.00000000000000E+00   1.42046342687266E-14
     -1.79768032123970E-14  -1.24316291514837E-14  -1.09468468905731E-14  -1.77300497978432E-15  -1.76986348935621E-14
     -1.24316291560921E-14   1.51920465508412E-13   1.24558694451322E-14   3.37983491089822E-15  -2.42402662705293E-17
     -1.12790555187684E-14  -1.77300493432045E-15   3.66849786880771E-15  -2.42402786842917E-17   1.51920465508412E-13
      1.79724524349144E-15
      1.00000000000000E+04
      8.00000000000000E-01   0.00000000000000E+00  -2.30932345679012E+00   0.00000000000000E+00   1.33716164014835E-14
     -1.68732883020004E-14  -1.19398553495224E-14  -6.02716585340684E-15  -1.43173950384347E-15  -1.49953459827713E-14
     -1.19398553073673E-14   0.00000000000000E+00   1.20848713056349E-14   2.17612577937716E-15  -1.45012267205978E-16
     -7.89852159611398E-15  -1.43173950288889E-15   4.04442046166192E-15  -1.45012296803324E-16   0.00000000000000E+00
      1.57675175563100E-15
      1.00000000000000E+04
      8.00000000000000E-01   0.00000000000000E+00  -3.30932345679012E+00   0.00000000000000E+00   1.21396142937434E-14
     -1.41499242105826E-14  -1.09699551326818E-14  -3.48969874410668E-15  -1.16965990921488E-15  -1.00241767328153E-14
     -1.09699551184118E-14   0.00000000000000E+00   1.12888837868935E-14   1.00501842020520E-15  -3.18918906516200E-16
     -7.58157609368053E-15  -1.16965985780528E-15   5.10052683228139E-15  -3.18918950191352E-16   0.00000000000000E+00
      1.48857881669192E-15
      1.00000000000000E+04
      8.00000000000000E-01   0.00000000000000E+00  -4.30932345679012E+00   0.00000000000000E+00   1.13111163137196E-14
     -9.78961905866529E-15  -1.02617224435442E-14  -1.69370059375700E-15  -1.04939619222248E-15  -7.51280272494727E-15
     -1.02617224614479E-14   0.00000000000000E+00   1.06756568984622E-14   6.35915013852427E-16  -4.13943027166707E-16
     -3.96405427648293E-15  -1.04939617295820E-15   2.90603268532936E-15  -4.13943045885515E-16   0.00000000000000E+00
      1.46333921858015E-15
      1.00000000000000E+04
      8.00000000000000E-01   0.00000000000000E+00  -5.30932345679012E+00   0.00000000000000E+00   1.07249367179543E-14
     -6.27690230511874E-15  -9.75116129252346E-15  -9.88628833742343E-16  -9.73778800415373E-16  -5.22349230117544E-15
     -9.75116128523085E-15   0.00000000000000E+00   1.02275161304001E-14   4.18588157836505E-16  -4.76365351938339E-16
     -2.03610622958753E-15  -9.73778790122366E-16   1.46621144001714E-15  -4.76365359515911E-16   0.00000000000000E+00
      1.45014415298960E-15
      1.00000000000000E+04
      8.00000000000000E-01   0.00000000000000E+00  -6.30932345679012E+00   0.00000000000000E+00   1.02405009676299E-14
     -4.65565243678264E-15  -9.32798189168903E-15  -8.13249083417668E-16  -9.12518970468824E-16  -3.91876532079145E-15
     -9.32798187162955E-15   1.51920465508412E-13   9.85563216752043E-15   3.04292143800914E-16  -5.27650167160885E-16
     -1.55032751214073E-15  -9.12518957269670E-16   1.04615888470459E-15  -5.27650170974056E-16   0.00000000000000E+00
      1.44016912864114E-15
      1.00000000000000E+04
      8.00000000000000E-01   0.00000000000000E+00  -7.30932345679012E+00   1.51920465508412E-13   9.82646686501324E-15
     -3.79320892042206E-15  -8.96951265359993E-15  -6.24694853251424E-16  -8.56954852657846E-16  -3.27954723173390E-15
     -8.96951263805251E-15   0.00000000000000E+00   9.54333820112329E-15   2.43315161203310E-16  -5.73817104676110E-16
     -1.16699715113960E-15  -8.56954834831079E-16   7.56474571094179E-16  -5.73817106819377E-16   0.00000000000000E+00
      1.43077196411576E-15
      1.00000000000000E+04
      8.00000000000000E-01   0.00000000000000E+00  -8.30932345679012E+00   0.00000000000000E+00   9.49283503016940E-15
     -3.08805517265472E-15  -8.68807293698612E-15  -4.84316898978883E-16  -8.04762297187333E-16  -2.76160884008422E-15
     -8.68807291734242E-15   0.00000000000000E+00   9.30406128756098E-15   1.84549939030639E-16  -6.15973863552005E-16
     -8.21349558475524E-16  -8.04762282166554E-16   5.16154527124073E-16  -6.15973863664060E-16   1.51920465508412E-13
      1.42073616546893E-15
      1.00000000000000E+04
      8.00000000000000E-01   0.00000000000000E+00  -9.30932345679012E+00   0.00000000000000E+00   9.20537497903688E-15
     -2.82882523059323E-15  -8.45176011845258E-15  -3.97600314286680E-16  -7.53616155466632E-16  -2.55548456317810E-15
     -8.45176009370511E-15   0.00000000000000E+00   9.10809306954625E-15   1.21700418321456E-16  -6.56340440316237E-16
     -6.90095344679904E-16  -7.53616140171526E-16   4.07870134119602E-16  -6.56340439305808E-16   0.00000000000000E+00
      1.40995659527955E-15
      1.00000000000000E+04
      8.00000000000000E-01   0.00000000000000E+00  -1.03093234567901E+01   0.00000000000000E+00   8.98277370445248E-15
     -2.56867047769026E-15  -8.26765275616865E-15  -3.10173292969912E-16  -7.15120734827127E-16  -3.55349028218935E-15
     -8.26765274301703E-15   0.00000000000000E+00   8.95434311859693E-15  -2.49068071531933E-16  -6.86687356341613E-16
      6.65400095162204E-16  -7.15120724746297E-16  -1.22982268059742E-15  -6.86687351552353E-16   0.00000000000000E+00
      1.40180808687595E-15
      1.00000000000000E+04
      8.00000000000000E-01   0.00000000000000E+00  -1.13093234567901E+01   1.51920465508412E-13   8.79754113175264E-15
     -2.70040652904419E-15  -8.10825386267107E-15  -3.27988023272300E-16  -6.89291684444771E-16  -1.68297862603902E-14
     -8.10825385728334E-15   0.00000000000000E+00   8.81591614160591E-15  -4.71471247709131E-15  -7.07628941066578E-16
      1.38112070812255E-14  -6.89291709050977E-16  -1.88563644871876E-14  -7.07628904242088E-16   0.00000000000000E+00
      1.39692062453207E-15
      1.00000000000000E+04
      8.00000000000000E-01   0.00000000000000E+00  -1.23093234567901E+01   0.00000000000000E+00   8.57666807834396E-15
     -2.47737248186946E-15  -7.91344786444113E-15  -2.98190928806970E-16  -6.63219117524979E-16  -1.58186090386480E-13
     -7.91344750887285E-15   0.00000000000000E+00   8.64287587773854E-15  -5.41093607220667E-14  -7.29429394326743E-16
      1.55411593432944E-13  -6.63219464027436E-16  -2.09820231019856E-13  -7.29429036445192E-16   0.00000000000000E+00
      1.39264851013573E-15
      1.00000000000000E+04
      8.00000000000000E-01   0.00000000000000E+00  -1.33093234567901E+01   0.00000000000000E+00   8.29969910959162E-15
     -1.96348275646412E-15  -7.66690181686576E-15  -1.94281605317033E-16  -6.32795584563762E-16  -1.40129423280375E-12
     -7.66689889385786E-15   0.00000000000000E+00   8.42225922844295E-15  -5.10349791190450E-13  -7.55359437205575E-16
      1.39915295545995E-12  -6.32798582554619E-16  -1.90969752922488E-12  -7.55356430342535E-16   0.00000000000000E+00
      1.38815502016185E-15
      1.00000000000000E+04
      8.00000000000000E-01   0.00000000000000E+00  -1.43093234567901E+01   0.00000000000000E+00   7.98913390996677E-15
     -1.66824279229055E-15  -7.38928160022438E-15  -1.26715446205740E-16  -5.99855083312632E-16  -1.02416931057273E-11
     -7.38926081416241E-15   1.42805237577907E-11   8.17306910845140E-15  -3.94301650518496E-12  -7.83809771320854E-16
      1.02398956938386E-11  -5.99875857730251E-16  -1.41830393634780E-11  -7.83788982151814E-16   0.00000000000000E+00
      1.38366485328767E-15
      1.00000000000000E+04
      8.00000000000000E-01   0.00000000000000E+00  -1.53093234567901E+01   0.00000000000000E+00   7.64369984526567E-15
     -1.59583038890255E-15  -7.08053876264506E-15  -8.91532062117238E-17  -5.63159876899250E-16  -6.16325801449436E-11
     -7.08042006687126E-15   8.73542676673368E-11   7.89622353711541E-15  -2.53161764198278E-11  -8.15803225526858E-16
      6.16308953024559E-11  -5.63278549702137E-16  -8.69471621342996E-11  -8.15684515978439E-16   2.71937633260057E-11
      1.37896310035525E-15
      1.00000000000000E+04
      8.00000000000000E-01   0.00000000000000E+00  -1.63093234567901E+01   0.00000000000000E+00   7.24287307230605E-15
     -1.86755510731993E-15  -6.72324928879865E-15  -1.43228036324745E-17  -5.19621678105550E-16  -3.15073405596332E-10
     -6.72267271836934E-15   4.56824839783794E-10   7.57655896353088E-15  -1.40945648085533E-10  -8.53885670706559E-16
      3.15071523094457E-10  -5.20198227499346E-16  -4.56017178313889E-10  -8.53309036228728E-16   1.38399544078163E-10
      1.37350734779622E-15
      1.00000000000000E+04
      8.00000000000000E-01   0.00000000000000E+00  -1.73093234567901E+01   0.00000000000000E+00   6.85375784781817E-15
     -2.90025747750444E-15  -6.37571088028757E-15   3.32343476585393E-16  -4.78046239646623E-16  -1.43707953757703E-09
     -6.37320901690129E-15   2.14071127947903E-09   7.26321005772485E-15  -7.01711371761758E-10  -8.89999061671858E-16
      1.43707694850806E-09  -4.80548069599522E-16  -2.13878795176661E-09  -8.87497221908630E-16   7.00049505062762E-10
      1.36804530081948E-15
      1.00000000000000E+04
      8.00000000000000E-01   0.00000000000000E+00  -1.83093234567901E+01   0.00000000000000E+00   6.58152884933439E-15
     -5.97784554631359E-15  -6.13037849305049E-15   1.48834602252137E-15  -4.51150137165644E-16  -6.03561319768031E-09
     -6.12034142531233E-15   9.15062539896817E-09   7.03162391423713E-15  -3.11491122498666E-09  -9.11282367760948E-16
      6.03560865584909E-09  -4.61187111832489E-16  -9.15051831550968E-09  -9.01245554049797E-16   3.11285033826736E-09
      1.36243250516940E-15
      1.00000000000000E+04
      8.00000000000000E-01   0.00000000000000E+00  -1.93093234567901E+01   0.00000000000000E+00   6.40455499178954E-15
     -1.22351218122861E-14  -5.97184975492361E-15   3.52479396824822E-15  -4.32705200378419E-16  -2.26667868079571E-08
     -5.93582757308140E-15   3.47247646421887E-08   6.85297269347168E-15  -1.20572936025183E-08  -9.17171604838205E-16
      2.26667780511671E-08  -4.68727386507862E-16  -3.47240677838744E-08  -8.81149439725782E-16   1.20568639041441E-08
      1.34987680522079E-15
      1.00000000000000E+04
      8.00000000000000E-01   0.00000000000000E+00  -2.03093234567901E+01   0.00000000000000E+00   6.27330100433058E-15
     -1.64544113988941E-14  -5.86133853813378E-15   4.91778893807747E-15  -4.11962372840675E-16  -7.14864707525131E-08
     -5.75383283853878E-15   1.10365204816499E-07   6.65826112749819E-15  -3.88777149120959E-08  -9.04452018152727E-16
      7.14864592382916E-08  -5.19468152957323E-16  -1.10364168582917E-07  -7.96946249752411E-16   3.88761432826716E-08
      1.31641439101782E-15
      1.00000000000000E+04
      8.00000000000000E-01   0.00000000000000E+00  -2.13093234567901E+01   1.51920465508412E-13   6.16867854911436E-15
     -1.58000551292999E-14  -5.78567907927007E-15   4.67907027042530E-15  -3.82999777161889E-16  -1.77171541681460E-07
     -5.53878672304535E-15   2.75541794383779E-07   6.40632901206537E-15  -9.83709720304581E-08  -8.67557524577176E-16
      1.77171530879428E-07  -6.29892277090957E-16  -2.75542496904573E-07  -6.20665027235604E-16   9.83713879055413E-08
      1.25055730174702E-15
      1.00000000000000E+04
      8.00000000000000E-01   0.00000000000000E+00  -2.23093234567901E+01   1.51920465508412E-13   6.08082092570246E-15
     -1.21714186322269E-14  -5.73362692283344E-15   3.43292797229153E-15  -3.47205296806709E-16  -3.37668350682421E-07
     -5.30678483425708E-15   5.29110572238748E-07   6.12468962755568E-15  -1.91439784449825E-07  -8.17749345119963E-16
      3.37668336068004E-07  -7.74044881693552E-16  -5.29108131460784E-07  -3.90909541875088E-16   1.91439688121580E-07
      1.16495464251662E-15
      1.00000000000000E+04
      8.00000000000000E-01   0.00000000000000E+00  -2.33093234567901E+01   0.00000000000000E+00   5.99982443008105E-15
     -8.75759396841466E-15  -5.68872900867155E-15   2.33234155532147E-15  -3.11093515041807E-16  -5.18963940999250E-07
     -5.09859504200864E-15   8.19389715220101E-07   5.87482663736552E-15  -3.00425418640585E-07  -7.76175524788077E-16
      5.18963930212953E-07  -9.01226204542093E-16  -8.19389354739448E-07  -1.86042808702720E-16   3.00425455111263E-07
      1.08726904027401E-15
      1.00000000000000E+04
      8.00000000000000E-01   0.00000000000000E+00  -2.43093234567901E+01   0.00000000000000E+00   5.92175159950042E-15
     -6.75555930269248E-15  -5.64234863292540E-15   1.71301235343844E-15  -2.79403069012627E-16  -6.91490885121306E-07
     -4.93201772885648E-15   1.09984127520818E-06   5.68320536961007E-15  -4.08349737787065E-07  -7.51160360638281E-16
      6.91490878682852E-07  -9.89733473507295E-16  -1.09984061614531E-06  -4.08299466046480E-17   4.08350057649370E-07
      1.03056342974790E-15
      1.00000000000000E+04
      8.00000000000000E-01   0.00000000000000E+00  -2.53093234567901E+01   0.00000000000000E+00   5.84873944220097E-15
     -5.73910099834921E-15  -5.59538505739490E-15   1.38885298105040E-15  -2.53354265983051E-16  -8.44953415411717E-07
     -4.80371529318275E-15   1.35303496143381E-06   5.54340992382513E-15  -5.08082061870375E-07  -7.39689306740889E-16
      8.44953410799137E-07  -1.04502386211492E-15  -1.35303547117578E-06   5.19802794728269E-17   5.08082501005401E-07
      9.93043572735858E-16
      1.00000000000000E+04
      8.00000000000000E-01   0.00000000000000E+00  -2.63093234567901E+01   0.00000000000000E+00   5.78357426190852E-15
     -5.15238604100082E-15  -5.55111690099588E-15   1.18963310533926E-15  -2.32425426571255E-16  -9.79406410945657E-07
     -4.70542515022321E-15   1.57789867117190E-06   5.44215919626363E-15  -5.98491043377954E-07  -7.36734057229938E-16
      9.79406406750619E-07  -1.07811711975696E-15  -1.57789744843377E-06   1.08957630037162E-16   5.98491433472716E-07
      9.69159483823032E-16
      1.00000000000000E+04
      8.00000000000000E-01   0.00000000000000E+00  -2.73093234567901E+01   0.00000000000000E+00   5.72665537266576E-15
     -4.83990791071351E-15  -5.51100809075468E-15   1.03827509556368E-15  -2.15636063019215E-16  -1.09730269024013E-06
     -4.62957765814156E-15   1.77773242077421E-06   5.36825000714035E-15  -6.80431465509809E-07  -7.38647403859646E-16
      1.09730268834554E-06  -1.09706730162012E-15  -1.77773416276937E-06   1.42783936678093E-16   6.80431407669798E-07
      9.54283466863331E-16
      1.00000000000000E+04
      8.00000000000000E-01   0.00000000000000E+00  -2.83093234567901E+01   0.00000000000000E+00   5.67667253067999E-15
     -4.58142134954755E-15  -5.47463887959939E-15   9.07111736052655E-16  -2.02030883245695E-16  -1.20103263702095E-06
     -4.56991880619998E-15   1.95619658193672E-06   5.31315862568675E-15  -7.55164144980781E-07  -7.43222612845755E-16
      1.20103263373990E-06  -1.10675130737706E-15  -1.95619678314958E-06   1.61497994229444E-16   7.55164123062696E-07
      9.45253496072351E-16
      1.00000000000000E+04
      8.00000000000000E-01   0.00000000000000E+00  -2.93093234567901E+01   0.00000000000000E+00   5.63176776619496E-15
     -4.36526049402096E-15  -5.44094452891928E-15   7.88580712107077E-16  -1.90820692167064E-16  -1.29284941758555E-06
     -4.52148756955637E-15   2.11677803318377E-06   5.27066010966517E-15  -8.23930511880128E-07  -7.49172155845542E-16
      1.29284941436438E-06  -1.11027802375960E-15  -2.11677993206925E-06   1.70285192773896E-16   8.23930314093217E-07
      9.39992847980519E-16
      1.00000000000000E+04
      8.00000000000000E-01   0.00000000000000E+00  -3.03093234567901E+01   0.00000000000000E+00   5.59045250502869E-15
     -4.16972940070935E-15  -5.40905363095487E-15   6.83232624890706E-16  -1.81397758785550E-16  -1.37510598074165E-06
     -4.48052952870674E-15   2.26295955118713E-06   5.23626596486264E-15  -8.87853101770680E-07  -7.55742636134207E-16
      1.37510597821693E-06  -1.10992214512265E-15  -2.26295908727712E-06   1.72781726534519E-16   8.87853432603795E-07
      9.37140394859025E-16
      1.00000000000000E+04
      8.00000000000000E-01   0.00000000000000E+00  -3.13093234567901E+01   0.00000000000000E+00   5.55185989850985E-15
     -3.98411438161865E-15  -5.37854942030568E-15   5.93334336426018E-16  -1.73310150555299E-16  -1.45027890591204E-06
     -4.44435527327313E-15   2.39818790746827E-06   5.20683609623054E-15  -9.47908105275744E-07  -7.62492501756250E-16
      1.45027890357548E-06  -1.10750457528291E-15  -2.39818701763985E-06   1.71701908118381E-16   9.47907592619270E-07
      9.35802652246703E-16
      1.00000000000000E+04
      8.00000000000000E-01   0.00000000000000E+00  -3.23093234567901E+01   0.00000000000000E+00   5.51566853763513E-15
     -3.79589855457583E-15  -5.34943859408377E-15   5.19639710704529E-16  -1.66229514578720E-16  -1.52082769372593E-06
     -4.41117226029651E-15   2.52574336871845E-06   5.18032685568723E-15  -1.00491544883451E-06  -7.69166114654587E-16
      1.52082769112369E-06  -1.10449609128319E-15  -2.52574314761752E-06   1.69100450354959E-16   1.00491544346037E-06
      9.35395629197627E-16
      1.00000000000000E+04
      8.00000000000000E-01   0.00000000000000E+00  -3.33093234567901E+01   1.51920465508412E-13   5.48200167059303E-15
     -3.64367795531189E-15  -5.32202201304904E-15   4.60953592534093E-16  -1.59923338744013E-16  -1.58899273405029E-06
     -4.37992778639977E-15   2.64852776774933E-06   5.15553615055629E-15  -1.05953514374984E-06  -7.75620475829810E-16
      1.58899273172155E-06  -1.10201780383707E-15  -2.64852788323335E-06   1.66473990234285E-16   1.05953586418601E-06
      9.35543814526781E-16
      1.00000000000000E+04
      8.00000000000000E-01   0.00000000000000E+00  -3.43093234567901E+01   0.00000000000000E+00   5.45098799273205E-15
     -3.45019368000566E-15  -5.29673915906337E-15   4.15184051013111E-16  -1.54232686274849E-16  -1.65659462280472E-06
     -4.35015544187903E-15   2.76886168967156E-06   5.13192535863777E-15  -1.11226768461025E-06  -7.81781838952662E-16
      1.65659462040979E-06  -1.10081657597788E-15  -2.76886231114269E-06   1.64802050496380E-16   1.11226821736630E-06
      9.36014525208959E-16
      1.00000000000000E+04
      8.00000000000000E-01   0.00000000000000E+00  -3.53093234567901E+01   0.00000000000000E+00   5.42308207543707E-15
     -3.25501640462133E-15  -5.27401481832131E-15   3.79966337553107E-16  -1.49053554270862E-16  -1.72488183512717E-06
     -4.32181172815900E-15   2.88834212241856E-06   5.10942079566434E-15  -1.16346073301520E-06  -7.87619558437347E-16
      1.72488183237704E-06  -1.10125679648803E-15  -2.88834256862474E-06   1.64583687579494E-16   1.16346055278774E-06
      9.36673112720568E-16
      1.00000000000000E+04
      8.00000000000000E-01   0.00000000000000E+00  -3.63093234567901E+01   0.00000000000000E+00   5.39846568483258E-15
     -3.05637354322509E-15  -5.25413653278754E-15   3.52556902846933E-16  -1.44320402607157E-16  -1.79446914757312E-06
     -4.29510280969916E-15   3.00779520948177E-06   5.08822390329582E-15  -1.21332581240771E-06  -7.93129512191275E-16
      1.79446914508119E-06  -1.10335425055640E-15  -3.00779496207037E-06   1.65904351739002E-16   1.21332616678390E-06
      9.37449914807203E-16
      1.00000000000000E+04
      8.00000000000000E-01   0.00000000000000E+00  -3.73093234567901E+01   0.00000000000000E+00   5.37719743202625E-15
     -2.87648178036580E-15  -5.23718791502462E-15   3.30132620606525E-16  -1.39991746309769E-16  -1.86538830967624E-06
     -4.27032161043058E-15   3.12735555239364E-06   5.06863931327110E-15  -1.26196608366982E-06  -7.98322722070655E-16
      1.86538830706556E-06  -1.10685819457718E-15  -3.12735439489565E-06   1.68543739218401E-16   1.26196623838479E-06
      9.38314468371130E-16
      1.00000000000000E+04
      8.00000000000000E-01   0.00000000000000E+00  -3.83093234567901E+01   0.00000000000000E+00   5.35908613521898E-15
     -2.71825578885814E-15  -5.22304781424068E-15   3.10516141145510E-16  -1.36038614697821E-16  -1.93723422633693E-06
     -4.24772240063899E-15   3.24664562879736E-06   5.05093554293963E-15  -1.30941132064997E-06  -8.03217239827169E-16
      1.93723422396513E-06  -1.11136411847614E-15  -3.24664554984532E-06   1.72108275679353E-16   1.30941206320633E-06
      9.39255854522528E-16
      1.00000000000000E+04
      8.00000000000000E-01   0.00000000000000E+00  -3.93093234567901E+01   0.00000000000000E+00   5.34387792116274E-15
     -2.58378355901960E-15  -5.21143930171805E-15   2.92540683280402E-16  -1.32436609169613E-16  -2.00935686805789E-06
     -4.22744993233391E-15   3.36500929420241E-06   5.03527942139348E-15  -1.35565280051470E-06  -8.07832757304806E-16
      2.00935686578878E-06  -1.11642607145170E-15  -3.36500967103019E-06   1.76156715699349E-16   1.35565285489545E-06
      9.40269366473169E-16
      1.00000000000000E+04
      8.00000000000000E-01   0.00000000000000E+00  -4.03093234567901E+01   0.00000000000000E+00   5.33115935980447E-15
     -2.47212019046683E-15  -5.20200127096587E-15   2.75784710967321E-16  -1.29161535186440E-16  -2.08104207072573E-06
     -4.20952131660510E-15   3.48171246891945E-06   5.02170673298184E-15  -1.40067132861117E-06  -8.12187697863924E-16
      2.08104206844210E-06  -1.12164155307877E-15  -3.48171340092292E-06   1.80292324284183E-16   1.40067144643956E-06
      9.41349233047750E-16
      1.00000000000000E+04
      8.00000000000000E-01   0.00000000000000E+00  -4.13093234567901E+01   1.51920465508412E-13   5.32054035658580E-15
     -2.38146531097313E-15  -5.19435417683478E-15   2.60258830122064E-16  -1.26187831610328E-16  -2.15164299108741E-06
     -4.19384415124322E-15   3.59609764117377E-06   5.01014092368836E-15  -1.44445509719495E-06  -8.16298252124790E-16
      2.15164298881213E-06  -1.12669790866130E-15  -3.59609808931048E-06   1.84211826086074E-16   1.44445538036048E-06
      9.42486083731016E-16
      1.00000000000000E+04
      8.00000000000000E-01   0.00000000000000E+00  -4.23093234567901E+01   0.00000000000000E+00   5.31163369446728E-15
     -2.29716186905806E-15  -5.18814636233095E-15   2.46047618558188E-16  -1.23488709169365E-16  -2.22065149243462E-06
     -4.18025066199187E-15   3.70765967541755E-06   5.00042817940581E-15  -1.48700787411867E-06  -8.20178576214604E-16
      2.22065149023046E-06  -1.13138445902686E-15  -3.70765936820347E-06   1.87717175431772E-16   1.48700799890845E-06
      9.43667285374811E-16
      1.00000000000000E+04
      8.00000000000000E-01   0.00000000000000E+00  -4.33093234567901E+01   0.00000000000000E+00   5.30411347088625E-15
     -2.23480519580011E-15  -5.18307785156328E-15   2.33219634416823E-16  -1.21037034086972E-16  -2.28771920404424E-06
     -4.16853252648490E-15   3.81606905616109E-06   4.99237319757126E-15  -1.52835022854095E-06  -8.23841430572070E-16
      2.28771920185213E-06  -1.13558239961263E-15  -3.81606943297344E-06   1.90703934467838E-16   1.52834996326679E-06
      9.44878464654688E-16
      1.00000000000000E+04
      8.00000000000000E-01   0.00000000000000E+00  -4.43093234567901E+01   0.00000000000000E+00   5.29771252454741E-15
     -2.17532169640826E-15  -5.17890672437392E-15   2.21751006852407E-16  -1.18806323765196E-16  -2.35264612250495E-06
     -4.15846847830238E-15   3.92116307658584E-06   4.98576672448134E-15  -1.56851689353960E-06  -8.27298799698568E-16
      2.35264612041601E-06  -1.13924461291294E-15  -3.92116301600856E-06   1.93139489125276E-16   1.56851682282442E-06
      9.46105123462829E-16
      1.00000000000000E+04
      8.00000000000000E-01   0.00000000000000E+00  -4.53093234567901E+01   0.00000000000000E+00   5.29221397161612E-15
     -2.12510875733509E-15  -5.17544491711038E-15   2.11547212628556E-16  -1.16771543933233E-16  -2.41535350149668E-06
     -4.14984255989147E-15   4.02290618730288E-06   4.98040439879988E-15  -1.60755268406175E-06  -8.30562303618021E-16
      2.41535349948278E-06  -1.14237393687266E-15  -4.02290618526882E-06   1.95040088105210E-16   1.60755369795960E-06
      9.47333847547169E-16
      1.00000000000000E+04
      8.00000000000000E-01   0.00000000000000E+00  -4.63093234567901E+01   0.00000000000000E+00   5.28745627057709E-15
     -2.06915920216089E-15  -5.17254914915950E-15   2.02468329400528E-16  -1.14909617755160E-16  -2.47585275311621E-06
     -4.14245442369462E-15   4.12136113146445E-06   4.97609739657616E-15  -1.64550843258752E-06  -8.33643386647386E-16
      2.47585275114595E-06  -1.14500437498696E-15  -4.12136118515789E-06   1.96451371890620E-16   1.64550813977804E-06
      9.48553004400029E-16
      1.00000000000000E+04
      8.00000000000000E-01   0.00000000000000E+00  -4.73093234567901E+01   0.00000000000000E+00   5.28330891595452E-15
     -2.00966578944254E-15  -5.17011087386973E-15   1.94353392156829E-16  -1.13199671453593E-16  -2.53421688521044E-06
     -4.13612380286536E-15   4.21665476265926E-06   4.97267687779391E-15  -1.68243761994527E-06  -8.36553343995256E-16
      2.53421688330480E-06  -1.14718676940497E-15  -4.21665450435488E-06   1.97433753973239E-16   1.68243802997708E-06
      9.49753015445789E-16
      1.00000000000000E+04
      8.00000000000000E-01   0.00000000000000E+00  -4.83093234567901E+01   0.00000000000000E+00   5.27966830773428E-15
     -1.94633142658508E-15  -5.16804719916989E-15   1.87029137136822E-16  -1.11623082362013E-16  -2.59055720091278E-06
     -4.13069146254345E-15   4.30895069922865E-06   4.96999452721171E-15  -1.71839388425734E-06  -8.39303257938273E-16
      2.59055719908687E-06  -1.14897884101298E-15  -4.30895108413470E-06   1.98052500252942E-16   1.71839350231035E-06
      9.50926340298513E-16
      1.00000000000000E+04
      8.00000000000000E-01   0.00000000000000E+00  -4.93093234567901E+01   0.00000000000000E+00   5.27645442510368E-15
     -1.88199452236511E-15  -5.16629358448053E-15   1.80333383932420E-16  -1.10163397608138E-16  -2.64500573158196E-06
     -4.12601821257093E-15   4.39843443606102E-06   4.96792195833255E-15  -1.75342934090503E-06  -8.41903899632973E-16
      2.64500572979578E-06  -1.15043878934871E-15  -4.39843507130502E-06   1.98371491866395E-16   1.75342955198637E-06
      9.52067297239850E-16
      1.00000000000000E+04
      8.00000000000000E-01   0.00000000000000E+00  -5.03093234567901E+01   0.00000000000000E+00   5.27360265234046E-15
     -1.81898404111291E-15  -5.16479838105892E-15   1.74136102920246E-16  -1.08806178533951E-16  -2.69770278264058E-06
     -4.12198304229617E-15   4.48529663334057E-06   4.96634856468450E-15  -1.78759355277170E-06  -8.44365631513084E-16
      2.69770278093343E-06  -1.15162153364677E-15  -4.48529633413384E-06   1.98449723101991E-16   1.78759342626990E-06
      9.53171810044618E-16
      1.00000000000000E+04
      8.00000000000000E-01   0.00000000000000E+00  -5.13093234567901E+01   0.00000000000000E+00   5.27105465546523E-15
     -1.76057476483206E-15  -5.16351898299234E-15   1.68351956621629E-16  -1.07538809982895E-16  -2.74878858989228E-06
     -4.11848103824056E-15   4.56972172251244E-06   4.96517925845869E-15  -1.82093297877853E-06  -8.46698327914787E-16
      2.74878858047854E-06  -1.15257676161898E-15  -4.56972149151694E-06   1.98339567164838E-16   1.82093313202805E-06
      9.54237137904395E-16
      1.00000000000000E+04
      8.00000000000000E-01   0.00000000000000E+00  -5.23093234567901E+01   0.00000000000000E+00   5.26876879323904E-15
     -1.70506325002739E-15  -5.16241920672217E-15   1.62927115558712E-16  -1.06350299828749E-16  -2.79839806461806E-06
     -4.11542133566657E-15   4.65188790628267E-06   4.96433256254994E-15  -1.85349075246046E-06  -8.48911320078043E-16
      2.79839805663744E-06  -1.15334817729607E-15  -4.65188875539688E-06   1.98086498298594E-16   1.85349090315022E-06
      9.55261619893496E-16
      1.00000000000000E+04