DF-ISE text

Info {
  version   = 1.0
  type      = xyplot
  datasets  = [
    "time"
    "Ntop OuterVoltage" "Ntop InnerVoltage" "Ntop QuasiFermiPotential" "Ntop DisplacementCurrent" "Ntop eCurrent"
    "Ntop hCurrent" "Ntop TotalCurrent" "Ntop Charge" "Ptop OuterVoltage" "Ptop InnerVoltage"
    "Ptop QuasiFermiPotential" "Ptop DisplacementCurrent" "Ptop eCurrent" "Ptop hCurrent" "Ptop TotalCurrent"
    "Ptop Charge" "Pbot OuterVoltage" "Pbot InnerVoltage" "Pbot QuasiFermiPotential" "Pbot DisplacementCurrent"
    "Pbot eCurrent" "Pbot hCurrent" "Pbot TotalCurrent" "Pbot Charge" ]
  functions = [
    Time
    OuterVoltage InnerVoltage QuasiFermiPotential DisplacementCurrent eCurrent
    hCurrent TotalCurrent Charge OuterVoltage InnerVoltage
    QuasiFermiPotential DisplacementCurrent eCurrent hCurrent TotalCurrent
    Charge OuterVoltage InnerVoltage QuasiFermiPotential DisplacementCurrent
    eCurrent hCurrent TotalCurrent Charge ]
}

Data {
      0.00000000000000E+00
      0.00000000000000E+00   0.00000000000000E+00   0.00000000000000E+00   0.00000000000000E+00  -5.45007222179830E-27
      1.50432483451721E-18   1.50432482906714E-18   3.62097191890657E-14   0.00000000000000E+00   0.00000000000000E+00
      0.00000000000000E+00   0.00000000000000E+00   5.43966445813698E-27   3.00119612612722E-22   3.00125052277181E-22
     -1.62244351147758E-14   0.00000000000000E+00   0.00000000000000E+00   0.00000000000000E+00   0.00000000000000E+00
      8.66827484620848E-30  -1.50462495412810E-18  -1.50462495411943E-18  -1.99852840742898E-14
      0.00000000000000E+00
      0.00000000000000E+00   0.00000000000000E+00   0.00000000000000E+00   0.00000000000000E+00   7.42589622096862E-26
     -7.58549357620837E-17  -7.58549356878247E-17   3.62097211796259E-14   0.00000000000000E+00   0.00000000000000E+00
      0.00000000000000E+00   0.00000000000000E+00  -7.37741908855584E-26  -1.69289010361735E-23  -1.70026752270591E-23
     -1.62244351147759E-14   0.00000000000000E+00   0.00000000000000E+00   0.00000000000000E+00   0.00000000000000E+00
     -4.34097782784894E-28   7.58549526909335E-17   7.58549526904994E-17  -1.99852860648501E-14
      1.00000000000000E-02
      8.00000000000000E-03   7.99999999999997E-03   0.00000000000000E+00   0.00000000000000E+00   7.75578248681842E-16
      7.46110838191589E-18   7.83039357063758E-16   3.63738380681912E-14   0.00000000000000E+00   0.00000000000000E+00
      0.00000000000000E+00   0.00000000000000E+00  -1.51360581295737E-17  -6.52185385321053E-17  -8.03545966616790E-17
     -1.63864894736677E-14   0.00000000000000E+00   0.00000000000000E+00   0.00000000000000E+00   0.00000000000000E+00
     -2.13438654119596E-16  -4.89246106282482E-16  -7.02684760402078E-16  -1.99873485945235E-14
      2.37355555555556E-02
      1.89884444444444E-02   1.89884444444444E-02   0.00000000000000E+00   0.00000000000000E+00   1.61466626965189E-15
      1.47425332109709E-17   1.62940880286286E-15   3.65962660184514E-14   0.00000000000000E+00   0.00000000000000E+00
      0.00000000000000E+00   0.00000000000000E+00  -2.95822803847113E-17  -1.37857777188074E-16  -1.67440057572785E-16
     -1.66060835044131E-14   0.00000000000000E+00   0.00000000000000E+00   0.00000000000000E+00   0.00000000000000E+00
     -4.17275336220031E-16  -1.04469340907004E-15  -1.46196874529007E-15  -1.99901825140383E-14
      4.28523965432099E-02
      3.42819172345679E-02   3.42819172345679E-02   0.00000000000000E+00   0.00000000000000E+00   2.47369750259391E-15
      2.06321490956971E-17   2.49432965168961E-15   3.69002494007771E-14   0.00000000000000E+00   0.00000000000000E+00
      0.00000000000000E+00   0.00000000000000E+00  -4.17479875547207E-17  -2.14789321128317E-16  -2.56537308683038E-16
     -1.69061198511767E-14   0.00000000000000E+00   0.00000000000000E+00   0.00000000000000E+00   0.00000000000000E+00
     -5.89213765206776E-16  -1.64857857779980E-15  -2.23779234300657E-15  -1.99941295496003E-14
      6.94587910111385E-02
      5.55670328089108E-02   5.55670328089108E-02   0.00000000000000E+00   0.00000000000000E+00   3.29616847731994E-15
      2.36042678657221E-17   3.31977274518566E-15   3.73130821763127E-14   0.00000000000000E+00   0.00000000000000E+00
      0.00000000000000E+00   0.00000000000000E+00  -5.01716517182761E-17  -2.90471627901645E-16  -3.40643279619922E-16
     -1.73134514935707E-14   0.00000000000000E+00   0.00000000000000E+00   0.00000000000000E+00   0.00000000000000E+00
     -7.08909435368733E-16  -2.27022003019700E-15  -2.97912946556573E-15  -1.99996306827420E-14
      1.06488979578391E-01
      8.51911836627130E-02   8.51911836627130E-02   0.00000000000000E+00   0.00000000000000E+00   4.06775861244442E-15
      2.70082089417068E-17   4.09476682138613E-15   3.78696113422731E-14   0.00000000000000E+00   0.00000000000000E+00
      0.00000000000000E+00   0.00000000000000E+00  -5.45881390972717E-17  -3.62509769646768E-16  -4.17097908744040E-16
     -1.78623055662434E-14   0.00000000000000E+00   0.00000000000000E+00   0.00000000000000E+00   0.00000000000000E+00
     -7.72994378084655E-16  -2.90467453455744E-15  -3.67766891264209E-15  -2.00073057760297E-14
      1.57352000808211E-01
      1.25881600646569E-01   1.25881600646569E-01   0.00000000000000E+00   0.00000000000000E+00   4.85033297625795E-15
      2.76998048219821E-17   4.87803278107993E-15   3.86049245912733E-14   0.00000000000000E+00   0.00000000000000E+00
      0.00000000000000E+00   0.00000000000000E+00  -5.61071164955432E-17  -4.33165378496031E-16  -4.89272494991574E-16
     -1.85870373647014E-14   0.00000000000000E+00   0.00000000000000E+00   0.00000000000000E+00   0.00000000000000E+00
     -7.96994433102077E-16  -3.59176585298628E-15  -4.38876028608835E-15  -2.00178872265721E-14
      2.27215186190770E-01
      1.81772148952616E-01   1.81772148952616E-01   0.00000000000000E+00   0.00000000000000E+00   5.74263225983180E-15
      2.77303059830184E-17   5.77036256581481E-15   3.95723379664751E-14   0.00000000000000E+00   0.00000000000000E+00
      0.00000000000000E+00   0.00000000000000E+00  -5.63913062007489E-17  -5.22410689015928E-16  -5.78801995216677E-16
     -1.95398442235200E-14   0.00000000000000E+00   0.00000000000000E+00   0.00000000000000E+00   0.00000000000000E+00
     -8.03027701555956E-16  -4.38853286904217E-15  -5.19156057059813E-15  -2.00324937429551E-14
      3.23176152601792E-01
      2.58540922081434E-01   2.58540922081433E-01   0.00000000000000E+00   0.00000000000000E+00   6.77860687377326E-15
      2.77479205413706E-17   6.80635479431463E-15   4.08442383659678E-14   0.00000000000000E+00   0.00000000000000E+00
      0.00000000000000E+00   0.00000000000000E+00  -5.64118605523074E-17  -6.65722039378773E-16  -7.22133899931081E-16
     -2.07915587853462E-14   0.00000000000000E+00   0.00000000000000E+00   0.00000000000000E+00   0.00000000000000E+00
     -8.04483224155258E-16  -5.27973767022829E-15  -6.08422089438354E-15  -2.00526795806216E-14
      4.23176152601792E-01
      3.38540922081434E-01   3.38540922081434E-01   0.00000000000000E+00   0.00000000000000E+00   7.87733677196176E-15
      2.77673380596923E-17   7.90510411002145E-15   4.21205588663789E-14   0.00000000000000E+00   0.00000000000000E+00
      0.00000000000000E+00   0.00000000000000E+00  -5.64112848250071E-17  -8.44053541822238E-16  -9.00464826647245E-16
     -2.20467144754664E-14   0.00000000000000E+00   0.00000000000000E+00   0.00000000000000E+00   0.00000000000000E+00
     -8.05346921803200E-16  -6.19929236157102E-15  -7.00463928337422E-15  -2.00738443909125E-14
      5.23176152601792E-01
      4.18540922081434E-01   4.18540922081434E-01   0.00000000000000E+00   0.00000000000000E+00   8.94848944112793E-15
      2.77322715327253E-17   8.97622171266065E-15   4.33587855029366E-14   0.00000000000000E+00   0.00000000000000E+00
      0.00000000000000E+00   0.00000000000000E+00  -5.64109834968234E-17  -1.01085849689534E-15  -1.06726948039216E-15
     -2.32636739598871E-14   0.00000000000000E+00   0.00000000000000E+00   0.00000000000000E+00   0.00000000000000E+00
     -8.06186813653801E-16  -7.10276541861468E-15  -7.90895223226849E-15  -2.00951115430495E-14
      6.23176152601792E-01
      4.98540922081434E-01   4.98540922081434E-01   0.00000000000000E+00   0.00000000000000E+00   9.86214695455462E-15
      2.77295727135190E-17   9.88987652726814E-15   4.45633719281919E-14   0.00000000000000E+00   0.00000000000000E+00
      0.00000000000000E+00   0.00000000000000E+00  -5.64113760229078E-17  -1.12952122265474E-15  -1.18593259867765E-15
     -2.44469145981789E-14   0.00000000000000E+00   0.00000000000000E+00   0.00000000000000E+00   0.00000000000000E+00
     -8.07027276098074E-16  -7.89691665249243E-15  -8.70394392859050E-15  -2.01164573300130E-14
      7.23176152601792E-01
      5.78540922081434E-01   5.78540922081433E-01   0.00000000000000E+00   0.00000000000000E+00   1.07712856941824E-14
      2.77983594973575E-17   1.07990840536798E-14   4.57332962623162E-14   0.00000000000000E+00   0.00000000000000E+00
      0.00000000000000E+00   0.00000000000000E+00  -5.64131142428557E-17  -1.21521746540351E-15  -1.27163057964637E-15
     -2.55954339706637E-14   0.00000000000000E+00   0.00000000000000E+00   0.00000000000000E+00   0.00000000000000E+00
     -8.07868512452304E-16  -8.71958496158114E-15  -9.52745347403344E-15  -2.01378622916525E-14
      8.23176152601792E-01
      6.58540922081434E-01   6.58540922081434E-01   0.00000000000000E+00   0.00000000000000E+00   1.16722595806134E-14
      2.78619805657887E-17   1.17001215611792E-14   4.68635552303504E-14   0.00000000000000E+00   0.00000000000000E+00
      0.00000000000000E+00   0.00000000000000E+00  -5.64156225085087E-17  -1.29112367324502E-15  -1.34753929575353E-15
     -2.67042490007235E-14   0.00000000000000E+00   0.00000000000000E+00   0.00000000000000E+00   0.00000000000000E+00
     -8.08709889459292E-16  -9.54387237596632E-15  -1.03525822654256E-14  -2.01593062296270E-14
      9.23176152601792E-01
      7.38540922081434E-01   7.38540922081433E-01   0.00000000000000E+00   0.00000000000000E+00   1.24852313639914E-14
      2.78460182266460E-17   1.25130773822180E-14   4.79478513891118E-14   0.00000000000000E+00   0.00000000000000E+00
      0.00000000000000E+00   0.00000000000000E+00  -5.64180190901048E-17  -1.36573381763728E-15  -1.42215183672739E-15
     -2.77670777395916E-14   0.00000000000000E+00   0.00000000000000E+00   0.00000000000000E+00   0.00000000000000E+00
     -8.09550907558911E-16  -1.02813746379317E-14  -1.10909255454906E-14  -2.01807736495200E-14
      1.00000000000000E+00
      8.00000000000000E-01   8.00000000000001E-01   0.00000000000000E+00   0.00000000000000E+00   1.31005892601471E-14
      2.77683922523769E-17   1.31283576523995E-14   4.87473025050518E-14   0.00000000000000E+00   0.00000000000000E+00
      0.00000000000000E+00   0.00000000000000E+00  -5.64196967013577E-17  -1.42406641517348E-15  -1.48048611187483E-15
     -2.85500284136143E-14   0.00000000000000E+00   0.00000000000000E+00   0.00000000000000E+00   0.00000000000000E+00
     -8.10196525619970E-16  -1.08376750149047E-14  -1.16478715405246E-14  -2.01972740914375E-14
}
