DF-ISE text

Info {
  version   = 1.0
  type      = xyplot
  datasets  = [
    "time"
    "Ntop OuterVoltage" "Ntop InnerVoltage" "Ntop QuasiFermiPotential" "Ntop DisplacementCurrent" "Ntop eCurrent"
    "Ntop hCurrent" "Ntop TotalCurrent" "Ntop Charge" "Ptop OuterVoltage" "Ptop InnerVoltage"
    "Ptop QuasiFermiPotential" "Ptop DisplacementCurrent" "Ptop eCurrent" "Ptop hCurrent" "Ptop TotalCurrent"
    "Ptop Charge" "Pbot OuterVoltage" "Pbot InnerVoltage" "Pbot QuasiFermiPotential" "Pbot DisplacementCurrent"
    "Pbot eCurrent" "Pbot hCurrent" "Pbot TotalCurrent" "Pbot Charge" ]
  functions = [
    Time
    OuterVoltage InnerVoltage QuasiFermiPotential DisplacementCurrent eCurrent
    hCurrent TotalCurrent Charge OuterVoltage InnerVoltage
    QuasiFermiPotential DisplacementCurrent eCurrent hCurrent TotalCurrent
    Charge OuterVoltage InnerVoltage QuasiFermiPotential DisplacementCurrent
    eCurrent hCurrent TotalCurrent Charge ]
}

Data {
      0.00000000000000E+00
      0.00000000000000E+00   0.00000000000000E+00   0.00000000000000E+00   0.00000000000000E+00  -5.45007222179830E-27
      1.50432483451721E-18   1.50432482906714E-18   3.62097191890657E-14   0.00000000000000E+00   0.00000000000000E+00
      0.00000000000000E+00   0.00000000000000E+00   5.43966445813698E-27   3.00119612612722E-22   3.00125052277181E-22
     -1.62244351147758E-14   0.00000000000000E+00   0.00000000000000E+00   0.00000000000000E+00   0.00000000000000E+00
      8.66827484620848E-30  -1.50462495412810E-18  -1.50462495411943E-18  -1.99852840742898E-14
      0.00000000000000E+00
      0.00000000000000E+00   0.00000000000000E+00   0.00000000000000E+00   0.00000000000000E+00  -1.80983271943511E-26
     -7.58407451755215E-17  -7.58407451936199E-17   3.62097211796259E-14   0.00000000000000E+00   0.00000000000000E+00
      0.00000000000000E+00   0.00000000000000E+00   1.86431084061157E-26  -7.44372207266864E-24  -7.42507896426252E-24
     -1.62244351147759E-14   0.00000000000000E+00   0.00000000000000E+00   0.00000000000000E+00   0.00000000000000E+00
     -4.12943543838108E-28   7.58407526191114E-17   7.58407526186984E-17  -1.99852860648501E-14
      1.00000000000000E-02
      8.00000000000000E-03   8.00000000000000E-03   0.00000000000000E+00   0.00000000000000E+00   7.75585327942606E-16
      6.09596436353194E-18   7.81681292306138E-16   3.63738380682520E-14   0.00000000000000E+00   0.00000000000000E+00
      0.00000000000000E+00   0.00000000000000E+00  -1.51431385560846E-17  -6.41191599864983E-17  -7.92622985425829E-17
     -1.63864894737277E-14   0.00000000000000E+00   0.00000000000000E+00   0.00000000000000E+00   0.00000000000000E+00
     -2.13438653463916E-16  -4.88980340299638E-16  -7.02418993763555E-16  -1.99873485945242E-14
      2.37355555555556E-02
      1.89884444444444E-02   1.89884444444444E-02   0.00000000000000E+00   0.00000000000000E+00   1.61466627014165E-15
      1.47416594400468E-17   1.62940792958170E-15   3.65962660184515E-14   0.00000000000000E+00   0.00000000000000E+00
      0.00000000000000E+00   0.00000000000000E+00  -2.95822808743943E-17  -1.37857792421371E-16  -1.67440073295765E-16
     -1.66060835044131E-14   0.00000000000000E+00   0.00000000000000E+00   0.00000000000000E+00   0.00000000000000E+00
     -4.17275336220072E-16  -1.04469252006586E-15  -1.46196785628593E-15  -1.99901825140383E-14
      4.28523965432099E-02
      3.42819172345679E-02   3.42819172345679E-02   0.00000000000000E+00   0.00000000000000E+00   2.47369750400090E-15
      2.06531798972582E-17   2.49435068389816E-15   3.69002494007770E-14   0.00000000000000E+00   0.00000000000000E+00
      0.00000000000000E+00   0.00000000000000E+00  -4.17479889619998E-17  -2.14789317933770E-16  -2.56537306895770E-16
     -1.69061198511767E-14   0.00000000000000E+00   0.00000000000000E+00   0.00000000000000E+00   0.00000000000000E+00
     -5.89213765206391E-16  -1.64859961179600E-15  -2.23781337700239E-15  -1.99941295496003E-14
      6.94587910111385E-02
      5.55670328089108E-02   5.55670328089108E-02   0.00000000000000E+00   0.00000000000000E+00   3.29616847775083E-15
      2.37372292060804E-17   3.31990570695691E-15   3.73130821763127E-14   0.00000000000000E+00   0.00000000000000E+00
      0.00000000000000E+00   0.00000000000000E+00  -5.01716521473618E-17  -2.90471647429806E-16  -3.40643299577168E-16
     -1.73134514935707E-14   0.00000000000000E+00   0.00000000000000E+00   0.00000000000000E+00   0.00000000000000E+00
     -7.08909435369263E-16  -2.27035297201047E-15  -2.97926240737974E-15  -1.99996306827420E-14
      1.06488979578391E-01
      8.51911836627130E-02   8.51911836627130E-02   0.00000000000000E+00   0.00000000000000E+00   4.06775673232882E-15
      1.56799079042590E-17   4.08343664023308E-15   3.78696113421243E-14   0.00000000000000E+00   0.00000000000000E+00
      0.00000000000000E+00   0.00000000000000E+00  -5.45862566682860E-17  -3.60440566169314E-16  -4.15026822837600E-16
     -1.78623055660969E-14   0.00000000000000E+00   0.00000000000000E+00   0.00000000000000E+00   0.00000000000000E+00
     -7.72994378248905E-16  -2.89541543914657E-15  -3.66840981739547E-15  -2.00073057760275E-14
      1.58026773133214E-01
      1.26421418506571E-01   1.26421418506571E-01   0.00000000000000E+00   0.00000000000000E+00   4.85973264244399E-15
      2.77217588009284E-17   4.88745440124492E-15   3.86144834576867E-14   0.00000000000000E+00   0.00000000000000E+00
      0.00000000000000E+00   0.00000000000000E+00  -5.61144870060592E-17  -4.34020088434845E-16  -4.90134575440904E-16
     -1.85964555459683E-14   0.00000000000000E+00   0.00000000000000E+00   0.00000000000000E+00   0.00000000000000E+00
     -7.97127421882731E-16  -3.60019240392129E-15  -4.39731982580402E-15  -2.00180279117183E-14
      2.28816795791517E-01
      1.83053436633213E-01   1.83053436633213E-01   0.00000000000000E+00   0.00000000000000E+00   5.76132268398451E-15
      2.77560739087490E-17   5.78907875789326E-15   3.95940469671484E-14   0.00000000000000E+00   0.00000000000000E+00
      0.00000000000000E+00   0.00000000000000E+00  -5.63926662094975E-17  -5.24560230962541E-16  -5.80952897172038E-16
     -1.95612174443905E-14   0.00000000000000E+00   0.00000000000000E+00   0.00000000000000E+00   0.00000000000000E+00
     -8.03075164010064E-16  -4.40505069671115E-15  -5.20812586072121E-15  -2.00328295227578E-14
      3.26050824691732E-01
      2.60840659753386E-01   2.60840659753386E-01   0.00000000000000E+00   0.00000000000000E+00   6.80881361548267E-15
      2.76846514642238E-17   6.83649826694690E-15   4.08815488139532E-14   0.00000000000000E+00   0.00000000000000E+00
      0.00000000000000E+00   0.00000000000000E+00  -5.64118685139439E-17  -6.70503232879047E-16  -7.26915101392991E-16
     -2.08282625244717E-14   0.00000000000000E+00   0.00000000000000E+00   0.00000000000000E+00   0.00000000000000E+00
     -8.04509861109293E-16  -5.30507330444461E-15  -6.10958316555391E-15  -2.00532862894815E-14
      4.26050824691732E-01
      3.40840659753386E-01   3.40840659753386E-01   0.00000000000000E+00   0.00000000000000E+00   7.90987443192889E-15
      2.77889569829299E-17   7.93766338891182E-15   4.21566490868016E-14   0.00000000000000E+00   0.00000000000000E+00
      0.00000000000000E+00   0.00000000000000E+00  -5.64112676834415E-17  -8.49308996024167E-16  -9.05720263707609E-16
     -2.20821946252233E-14   0.00000000000000E+00   0.00000000000000E+00   0.00000000000000E+00   0.00000000000000E+00
     -8.05371098648219E-16  -6.22657202655597E-15  -7.03194312520419E-15  -2.00744544615783E-14
      5.26050824691732E-01
      4.20840659753386E-01   4.20840659753386E-01   0.00000000000000E+00   0.00000000000000E+00   8.97654187955064E-15
      2.76509467559720E-17   9.00419282630661E-15   4.33938763970613E-14   0.00000000000000E+00   0.00000000000000E+00
      0.00000000000000E+00   0.00000000000000E+00  -5.64109835534157E-17  -1.01495764901470E-15  -1.07136863256812E-15
     -2.32981522388443E-14   0.00000000000000E+00   0.00000000000000E+00   0.00000000000000E+00   0.00000000000000E+00
     -8.06210959338794E-16  -7.12661323439970E-15  -7.93282419373849E-15  -2.00957241582169E-14
      6.26050824691732E-01
      5.00840659753386E-01   5.00840659753386E-01   0.00000000000000E+00   0.00000000000000E+00   9.88766856427799E-15
      2.77132452374596E-17   9.91538180951545E-15   4.45975034905060E-14   0.00000000000000E+00   0.00000000000000E+00
      0.00000000000000E+00   0.00000000000000E+00  -5.64114042988805E-17  -1.13231341040099E-15  -1.18872481469987E-15
     -2.44804315657445E-14   0.00000000000000E+00   0.00000000000000E+00   0.00000000000000E+00   0.00000000000000E+00
     -8.07051450902600E-16  -7.91960554391301E-15  -8.72665699481561E-15  -2.01170719247614E-14
      7.26050824691732E-01
      5.80840659753386E-01   5.80840659753386E-01   0.00000000000000E+00   0.00000000000000E+00   1.07979243882187E-14
      2.78445543395377E-17   1.08257689425583E-14   4.57663719411334E-14   0.00000000000000E+00   0.00000000000000E+00
      0.00000000000000E+00   0.00000000000000E+00  -5.64131824601763E-17  -1.21745770039521E-15  -1.27387088285539E-15
     -2.56278936607688E-14   0.00000000000000E+00   0.00000000000000E+00   0.00000000000000E+00   0.00000000000000E+00
     -8.07892700277256E-16  -8.74400535942563E-15  -9.55189805970289E-15  -2.01384782803646E-14
      8.26050824691732E-01
      6.60840659753386E-01   6.60840659753386E-01   0.00000000000000E+00   0.00000000000000E+00   1.16968127733153E-14
      2.77716486269048E-17   1.17245844219422E-14   4.68953940650971E-14   0.00000000000000E+00   0.00000000000000E+00
      0.00000000000000E+00   0.00000000000000E+00  -5.64156944731726E-17  -1.29327709934270E-15  -1.34969279381587E-15
     -2.67354709859090E-14   0.00000000000000E+00   0.00000000000000E+00   0.00000000000000E+00   0.00000000000000E+00
     -8.08734072842546E-16  -9.56615755528379E-15  -1.03748916281263E-14  -2.01599230791881E-14
      9.26050824691732E-01
      7.40840659753386E-01   7.40840659753386E-01   0.00000000000000E+00   0.00000000000000E+00   1.25079287793080E-14
      2.78301191220030E-17   1.25357588984300E-14   4.79782950675329E-14   0.00000000000000E+00   0.00000000000000E+00
      0.00000000000000E+00   0.00000000000000E+00  -5.64180844480026E-17  -1.36787708323268E-15  -1.42429516768068E-15
     -2.77969040724608E-14   0.00000000000000E+00   0.00000000000000E+00   0.00000000000000E+00   0.00000000000000E+00
     -8.09575075019785E-16  -1.03018886557295E-14  -1.11114637307493E-14  -2.01813909950720E-14
      1.00000000000000E+00
      8.00000000000000E-01   8.00000000000000E-01   0.00000000000000E+00   0.00000000000000E+00   1.31005892601471E-14
      2.77722512642737E-17   1.31283615114114E-14   4.87473025050518E-14   0.00000000000000E+00   0.00000000000000E+00
      0.00000000000000E+00   0.00000000000000E+00  -5.64196967013599E-17  -1.42406641518665E-15  -1.48048611188801E-15
     -2.85500284136143E-14   0.00000000000000E+00   0.00000000000000E+00   0.00000000000000E+00   0.00000000000000E+00
     -8.10196525619970E-16  -1.08376788739034E-14  -1.16478753995234E-14  -2.01972740914375E-14
      0.00000000000000E+00
      8.00000000000000E-01   8.00000000000000E-01   0.00000000000000E+00   0.00000000000000E+00   1.31005892601471E-14
      2.78410206049956E-17   1.31284302807521E-14   4.87473025050518E-14   0.00000000000000E+00   0.00000000000000E+00
      0.00000000000000E+00   0.00000000000000E+00  -5.64196967013625E-17  -1.42406641517047E-15  -1.48048611187183E-15
     -2.85500284136144E-14   0.00000000000000E+00   0.00000000000000E+00   0.00000000000000E+00   0.00000000000000E+00
     -8.10196525619970E-16  -1.08377476432603E-14  -1.16479441688803E-14  -2.01972740914375E-14
      1.00000000000000E-03
      8.00000000000000E-01   8.00000000000000E-01   0.00000000000000E+00   0.00000000000000E+00   1.40547162229697E-14
     -4.10903973823144E-13  -3.96849257600174E-13   4.87740900947838E-14   0.00000000000000E+00   0.00000000000000E+00
      0.00000000000000E+00   0.00000000000000E+00  -5.64196965890412E-17  -1.42042151531540E-15  -1.47684121190444E-15
     -2.85499598931557E-14  -1.00000000000000E-01  -1.00000000000000E-01   0.00000000000000E+00   0.00000000000000E+00
     -8.11245925675536E-16   3.99137344737755E-13   3.98326098812079E-13  -2.02241302016281E-14
      2.30066666666667E-03
      8.00000000000000E-01   8.00000000000000E-01   0.00000000000000E+00   0.00000000000000E+00   1.51776179919497E-14
      2.78663477443179E-17   1.52054843396940E-14   4.88088695388061E-14   0.00000000000000E+00   0.00000000000000E+00
      0.00000000000000E+00   0.00000000000000E+00  -5.64196963738471E-17  -1.41603138987608E-15  -1.47245108624992E-15
     -2.85498286628327E-14  -2.30066666666667E-01  -2.30066666666667E-01   0.00000000000000E+00   0.00000000000000E+00
     -8.12607635459714E-16  -1.29204256179844E-14  -1.37330332534441E-14  -2.02590408759734E-14
      4.08720459259259E-03
      8.00000000000000E-01   8.00000000000000E-01   0.00000000000000E+00   0.00000000000000E+00   1.66340423605412E-14
      2.78258918574466E-17   1.66618682523986E-14   4.88564329205674E-14   0.00000000000000E+00   0.00000000000000E+00
      0.00000000000000E+00   0.00000000000000E+00  -5.64196958866357E-17  -1.41049369757441E-15  -1.46691339346104E-15
     -2.85495315203573E-14  -4.08720459259259E-01  -4.08720459259259E-01   0.00000000000000E+00   0.00000000000000E+00
     -8.14470394805866E-16  -1.43804844641317E-14  -1.51949548589376E-14  -2.03069014002102E-14
      6.54111368595885E-03
      8.00000000000000E-01   8.00000000000000E-01   0.00000000000000E+00   0.00000000000000E+00   1.84140976970765E-14
      2.73696537636037E-17   1.84414673508401E-14   4.89210558963386E-14   0.00000000000000E+00   0.00000000000000E+00
      0.00000000000000E+00   0.00000000000000E+00  -5.64196945965458E-17  -1.40378090906770E-15  -1.46020060366425E-15
     -2.85487447437965E-14  -6.54111368595885E-01  -6.54111368595885E-01   0.00000000000000E+00   0.00000000000000E+00
     -8.17009312601078E-16  -1.61642574345748E-14  -1.69812667471759E-14  -2.03723111525421E-14
      9.91169415398036E-03
      8.00000000000000E-01   8.00000000000000E-01   0.00000000000000E+00   0.00000000000000E+00   2.06638304530646E-14
      2.78059756122264E-17   2.06916364286768E-14   4.90074413707706E-14   0.00000000000000E+00   0.00000000000000E+00
      0.00000000000000E+00   0.00000000000000E+00  -5.64196904705870E-17  -1.39616362588716E-15  -1.45258331635775E-15
     -2.85462285875819E-14  -9.91169415398036E-01  -9.91169415398036E-01   0.00000000000000E+00   0.00000000000000E+00
     -8.20448715723121E-16  -1.84186043965960E-14  -1.92390531123191E-14  -2.04612127831887E-14
      1.44799542149722E-02
      8.00000000000000E-01   8.00000000000000E-01   0.00000000000000E+00   0.00000000000000E+00   2.32749437300035E-14
      2.78228236507035E-17   2.33027665536542E-14   4.91172569269471E-14   0.00000000000000E+00   0.00000000000000E+00
      0.00000000000000E+00   0.00000000000000E+00  -5.64196750969833E-17  -1.38985962967112E-15  -1.44627930476810E-15
     -2.85368547913621E-14  -1.44799542149722E+00  -1.44799542149722E+00   0.00000000000000E+00   0.00000000000000E+00
     -8.25041603447559E-16  -2.10314456454385E-14  -2.18564872488861E-14  -2.05804021355849E-14
      2.06714693509698E-02
      8.00000000000000E-01   8.00000000000000E-01   0.00000000000000E+00   0.00000000000000E+00   2.60237096821925E-14
      2.77522998402898E-17   2.60514619820328E-14   4.92405517764852E-14   0.00000000000000E+00   0.00000000000000E+00
      0.00000000000000E+00   0.00000000000000E+00  -5.64196114523239E-17  -1.39257834984919E-15  -1.44899796130152E-15
     -2.84980552729707E-14  -2.06714693509698E+00  -2.06714693509698E+00   0.00000000000000E+00   0.00000000000000E+00
     -8.31257877982729E-16  -2.37712061427486E-14  -2.46024640207313E-14  -2.07424965035144E-14
      2.90630361986252E-02
      8.00000000000000E-01   8.00000000000000E-01   0.00000000000000E+00   0.00000000000000E+00   2.89707080968238E-14
      2.77447965358013E-17   2.89984528933596E-14   4.93150728973307E-14   0.00000000000000E+00   0.00000000000000E+00
      0.00000000000000E+00   0.00000000000000E+00  -5.64193635207469E-17  -1.43743263120729E-15  -1.49385199472804E-15
     -2.83467922702783E-14  -2.90630361986252E+00  -2.90630361986252E+00   0.00000000000000E+00   0.00000000000000E+00
     -8.39865021479098E-16  -2.66647358771524E-14  -2.75046008986315E-14  -2.09682806270524E-14
      3.90630361986252E-02
      8.00000000000000E-01   8.00000000000000E-01   0.00000000000000E+00   0.00000000000000E+00   3.13021237800677E-14
      2.80586843722541E-17   3.13301824644400E-14   4.92762724068214E-14   0.00000000000000E+00   0.00000000000000E+00
      0.00000000000000E+00   0.00000000000000E+00  -5.64188271107252E-17  -1.56691603868601E-15  -1.62333486579673E-15
     -2.80194433369760E-14  -3.90630361986252E+00  -3.90630361986252E+00   0.00000000000000E+00   0.00000000000000E+00
     -8.50784921603694E-16  -2.88560626770395E-14  -2.97068475986432E-14  -2.12568290698453E-14
      4.90630361986252E-02
      8.00000000000000E-01   8.00000000000000E-01   0.00000000000000E+00   0.00000000000000E+00   3.23016993183206E-14
      2.77579766432825E-17   3.23294572949639E-14   4.91769059754004E-14   0.00000000000000E+00   0.00000000000000E+00
      0.00000000000000E+00   0.00000000000000E+00  -5.64181348522071E-17  -1.65250909048655E-15  -1.70892722533875E-15
     -2.75996266346760E-14  -4.90630361986252E+00  -4.90630361986252E+00   0.00000000000000E+00   0.00000000000000E+00
     -8.62813901606639E-16  -2.97577161680186E-14  -3.06205300696252E-14  -2.15772793407243E-14
      5.90630361986252E-02
      8.00000000000000E-01   8.00000000000000E-01   0.00000000000000E+00   0.00000000000000E+00   3.28265910634695E-14
      2.74913731572245E-17   3.28540824366268E-14   4.90557773267156E-14   0.00000000000000E+00   0.00000000000000E+00
      0.00000000000000E+00   0.00000000000000E+00  -5.64173299126563E-17  -1.66350966823236E-15  -1.71992699814502E-15
     -2.71183967064592E-14  -5.90630361986252E+00  -5.90630361986252E+00   0.00000000000000E+00   0.00000000000000E+00
     -8.76213553263569E-16  -3.02579418852182E-14  -3.11341554384818E-14  -2.19373806202565E-14
      6.90630361986252E-02
      8.00000000000000E-01   8.00000000000000E-01   0.00000000000000E+00   0.00000000000000E+00   3.32565273837596E-14
      2.75011771919204E-17   3.32840285609516E-14   4.89321938460737E-14   0.00000000000000E+00   0.00000000000000E+00
      0.00000000000000E+00   0.00000000000000E+00  -5.64164209216665E-17  -1.64916822881342E-15  -1.70558464973509E-15
     -2.65862228660591E-14  -6.90630361986252E+00  -6.90630361986252E+00   0.00000000000000E+00   0.00000000000000E+00
     -8.91271501058516E-16  -3.06871724101579E-14  -3.15784439112164E-14  -2.23459709800145E-14
      7.90630361986252E-02
      8.00000000000000E-01   8.00000000000000E-01   0.00000000000000E+00   0.00000000000000E+00   3.35743574591315E-14
      2.77090860769466E-17   3.36020665452084E-14   4.88224646731219E-14   0.00000000000000E+00   0.00000000000000E+00
      0.00000000000000E+00   0.00000000000000E+00  -5.64154104638093E-17  -1.63460143701125E-15  -1.69101684747506E-15
     -2.60083876923718E-14  -7.90630361986252E+00  -7.90630361986252E+00   0.00000000000000E+00   0.00000000000000E+00
     -9.08336949445098E-16  -3.10027127482882E-14  -3.19110496977333E-14  -2.28140769807500E-14
      8.90630361986252E-02
      8.00000000000000E-01   8.00000000000000E-01   0.00000000000000E+00   0.00000000000000E+00   3.38094729551262E-14
      2.64291239262681E-17   3.38359020790525E-14   4.87435885842761E-14   0.00000000000000E+00   0.00000000000000E+00
      0.00000000000000E+00   0.00000000000000E+00  -5.64143016894799E-17  -1.60500917601826E-15  -1.66142347770774E-15
     -2.53884032380258E-14  -8.90630361986252E+00  -8.90630361986252E+00   0.00000000000000E+00   0.00000000000000E+00
     -9.27822232253357E-16  -3.12466563690915E-14  -3.21744786013448E-14  -2.33551853462503E-14
      9.90630361986252E-02
      8.00000000000000E-01   8.00000000000000E-01   0.00000000000000E+00   0.00000000000000E+00   3.39912662923017E-14
      2.79899205108647E-17   3.40192562128126E-14   4.87143690612575E-14   0.00000000000000E+00   0.00000000000000E+00
      0.00000000000000E+00   0.00000000000000E+00  -5.64131034015404E-17  -1.52761688258902E-15  -1.58402998599056E-15
     -2.47290321677738E-14  -9.90630361986252E+00  -9.90630361986252E+00   0.00000000000000E+00   0.00000000000000E+00
     -9.50194830287558E-16  -3.14850313965344E-14  -3.24352262268219E-14  -2.39853368934837E-14
      1.09063036198625E-01
      8.00000000000000E-01   8.00000000000000E-01   0.00000000000000E+00   0.00000000000000E+00   3.41235314213199E-14
      2.77934461634598E-17   3.41513248674834E-14   4.87635848442692E-14   0.00000000000000E+00   0.00000000000000E+00
      0.00000000000000E+00   0.00000000000000E+00  -5.64118443604046E-17  -8.65947382687124E-16  -9.22359227047528E-16
     -2.40404642743831E-14  -1.09063036198625E+01  -1.09063036198625E+01   0.00000000000000E+00   0.00000000000000E+00
     -9.75962667499482E-16  -3.22530029729364E-14  -3.32289656404359E-14  -2.47231205698861E-14
      1.19063036198625E-01
      8.00000000000000E-01   8.00000000000000E-01   0.00000000000000E+00   0.00000000000000E+00   3.42789154428936E-14
      2.78663325297670E-17   3.43067817754234E-14   4.89158259986542E-14   0.00000000000000E+00   0.00000000000000E+00
      0.00000000000000E+00   0.00000000000000E+00  -5.64105541627438E-17   6.96258695176637E-15   6.90617639760363E-15
     -2.33308121354820E-14  -1.19063036198625E+01  -1.19063036198625E+01   0.00000000000000E+00   0.00000000000000E+00
     -1.00549828877754E-15  -4.02074598842495E-14  -4.12129581730270E-14  -2.55850138631722E-14
      1.29063036198625E-01
      8.00000000000000E-01   8.00000000000000E-01   0.00000000000000E+00   0.00000000000000E+00   3.44093288752902E-14
      2.78426898109807E-17   3.44371715651012E-14   4.91760376996603E-14   0.00000000000000E+00   0.00000000000000E+00
      0.00000000000000E+00   0.00000000000000E+00  -5.64092452729638E-17   9.04681403858814E-14   9.04117311406084E-14
     -2.25989274819342E-14  -1.29063036198625E+01  -1.29063036198625E+01   0.00000000000000E+00   0.00000000000000E+00
     -1.03876200447859E-15  -1.23810140701231E-13  -1.24848902705710E-13  -2.65771102177263E-14
      1.39063036198625E-01
      8.00000000000000E-01   8.00000000000000E-01   0.00000000000000E+00   0.00000000000000E+00   3.44602653712016E-14
      2.78840378633000E-17   3.44881494090650E-14   4.95306356986909E-14   0.00000000000000E+00   0.00000000000000E+00
      0.00000000000000E+00   0.00000000000000E+00  -5.64079212989383E-17   8.36242967220605E-13   8.36186559299306E-13
     -2.18409889419793E-14  -1.39063036198625E+01  -1.39063036198625E+01   0.00000000000000E+00   0.00000000000000E+00
     -1.07516145415668E-15  -8.69599547254215E-13  -8.70674708708371E-13  -2.76896467567116E-14
      1.49063036198625E-01
      8.00000000000000E-01   8.00000000000000E-01   0.00000000000000E+00   0.00000000000000E+00   3.44664438058086E-14
      2.78614341084315E-17   3.44943052399170E-14   4.99531481997553E-14   0.00000000000000E+00   0.00000000000000E+00
      0.00000000000000E+00   0.00000000000000E+00  -5.64065860461447E-17   6.32046493364513E-12   6.32040852705908E-12
     -2.10545676496564E-14  -1.49063036198625E+01  -1.49063036198625E+01   0.00000000000000E+00   0.00000000000000E+00
     -1.11367384555498E-15  -6.35378915845345E-12  -6.35490283229900E-12  -2.88985805500989E-14
      1.59063036198625E-01
      8.00000000000000E-01   8.00000000000000E-01   0.00000000000000E+00   0.00000000000000E+00   3.44524413414938E-14
      2.78577714019122E-17   3.44802991128957E-14   5.04100341135685E-14   0.00000000000000E+00   0.00000000000000E+00
      0.00000000000000E+00   0.00000000000000E+00  -5.64052412266410E-17   4.02492076944759E-11   4.02491512892346E-11
     -2.02360537453747E-14  -1.59063036198625E+01  -1.59063036198625E+01   0.00000000000000E+00   0.00000000000000E+00
     -1.15317635381727E-15  -4.02824784119937E-11  -4.02836315883475E-11  -3.01739803681940E-14
      1.69063036198625E-01
      8.00000000000000E-01   8.00000000000000E-01   0.00000000000000E+00   0.00000000000000E+00   3.43692305461554E-14
      2.77894736551516E-17   3.43970200198106E-14   5.08701235828418E-14   0.00000000000000E+00   0.00000000000000E+00
      0.00000000000000E+00   0.00000000000000E+00  -5.64038828506891E-17   2.24203450354922E-10   2.24203393951039E-10
     -1.93808183373768E-14  -1.69063036198625E+01  -1.69063036198625E+01   0.00000000000000E+00   0.00000000000000E+00
     -1.19275514134127E-15  -2.24236598215917E-10  -2.24237790971059E-10  -3.14893052454651E-14
      1.79063036198625E-01
      8.00000000000000E-01   8.00000000000000E-01   0.00000000000000E+00   0.00000000000000E+00   3.38887940755402E-14
      2.78967492486513E-17   3.39166908247888E-14   5.13216027325803E-14   0.00000000000000E+00   0.00000000000000E+00
      0.00000000000000E+00   0.00000000000000E+00  -5.64024730873297E-17   1.11752735914322E-09   1.11752730274075E-09
     -1.84941595288055E-14  -1.79063036198625E+01  -1.79063036198625E+01   0.00000000000000E+00   0.00000000000000E+00
     -1.23186465945459E-15  -1.11755998756691E-09  -1.11756121943157E-09  -3.28274432037749E-14
      1.89063036198625E-01
      8.00000000000000E-01   8.00000000000000E-01   0.00000000000000E+00   0.00000000000000E+00   3.21652736410385E-14
      2.79146399040270E-17   3.21931882809425E-14   5.17759452465645E-14   0.00000000000000E+00   0.00000000000000E+00
      0.00000000000000E+00   0.00000000000000E+00  -5.64007332559015E-17   4.97388786694455E-09   4.97388781054382E-09
     -1.75941753368370E-14  -1.89063036198625E+01  -1.89063036198625E+01   0.00000000000000E+00   0.00000000000000E+00
     -1.27031329534916E-15  -4.97391873341881E-09  -4.97392000373211E-09  -3.41817699097276E-14
      1.99063036198625E-01
      8.00000000000000E-01   8.00000000000000E-01   0.00000000000000E+00   0.00000000000000E+00   2.84820155342226E-14
      2.79293996441688E-17   2.85099449338668E-14   5.22580805620532E-14   0.00000000000000E+00   0.00000000000000E+00
      0.00000000000000E+00   0.00000000000000E+00  -5.63979322550626E-17   1.93929980766693E-08   1.93929980202714E-08
     -1.67022416150381E-14  -1.99063036198625E+01  -1.99063036198625E+01   0.00000000000000E+00   0.00000000000000E+00
     -1.30820852005863E-15  -1.93930252220078E-08  -1.93930265302163E-08  -3.55558389470151E-14
      2.09063036198625E-01
      8.00000000000000E-01   8.00000000000000E-01   0.00000000000000E+00   0.00000000000000E+00   2.36261796001351E-14
      2.79461510526218E-17   2.36541257511877E-14   5.28133461444301E-14   0.00000000000000E+00   0.00000000000000E+00
      0.00000000000000E+00   0.00000000000000E+00  -5.63932000324995E-17   6.38802933639351E-08   6.38802933075419E-08
     -1.58454815834998E-14  -2.09063036198625E+01  -2.09063036198625E+01   0.00000000000000E+00   0.00000000000000E+00
     -1.34603389993412E-15  -6.38803156156339E-08  -6.38803169616678E-08  -3.69678645609304E-14
      2.19063036198625E-01
      8.00000000000000E-01   8.00000000000000E-01   0.00000000000000E+00   0.00000000000000E+00   1.91856594716159E-14
      2.79528246502751E-17   1.92136122962662E-14   5.35051101493212E-14   0.00000000000000E+00   0.00000000000000E+00
      0.00000000000000E+00   0.00000000000000E+00  -5.63854522198623E-17   1.71410135829652E-07   1.71410135773267E-07
     -1.50554699431438E-14  -2.19063036198625E+01  -2.19063036198625E+01   0.00000000000000E+00   0.00000000000000E+00
     -1.38456586387695E-15  -1.71410153602313E-07  -1.71410154986879E-07  -3.84496402061775E-14
      2.29063036198625E-01
      8.00000000000000E-01   8.00000000000000E-01   0.00000000000000E+00   0.00000000000000E+00   1.60383864145508E-14
      2.80100368516357E-17   1.60663964514024E-14   5.43796610754185E-14   0.00000000000000E+00   0.00000000000000E+00
      0.00000000000000E+00   0.00000000000000E+00  -5.63728687019117E-17   3.73626546390055E-07   3.73626546333682E-07
     -1.43518569981282E-14  -2.29063036198625E+01  -2.29063036198625E+01   0.00000000000000E+00   0.00000000000000E+00
     -1.42435770665172E-15  -3.73626560975719E-07  -3.73626562400077E-07  -4.00278040772904E-14
      2.39063036198625E-01
      8.00000000000000E-01   8.00000000000000E-01   0.00000000000000E+00   0.00000000000000E+00   1.39875372115195E-14
      2.80693714583958E-17   1.40156065829779E-14   5.54407646945854E-14   0.00000000000000E+00   0.00000000000000E+00
      0.00000000000000E+00   0.00000000000000E+00  -5.63525853273547E-17   6.84626512814849E-07   6.84626512758497E-07
     -1.37334225531821E-14  -2.39063036198625E+01  -2.39063036198625E+01   0.00000000000000E+00   0.00000000000000E+00
     -1.46536381244942E-15  -6.84626525308736E-07  -6.84626526774100E-07  -4.17073421414034E-14
      2.49063036198625E-01
      8.00000000000000E-01   8.00000000000000E-01   0.00000000000000E+00   0.00000000000000E+00   1.25534935709802E-14
      2.80113732582756E-17   1.25815049442385E-14   5.66638636125976E-14   0.00000000000000E+00   0.00000000000000E+00
      0.00000000000000E+00   0.00000000000000E+00  -5.63210366742244E-17   1.10268503765344E-06   1.10268503759712E-06
     -1.31871342328261E-14  -2.49063036198625E+01  -2.49063036198625E+01   0.00000000000000E+00   0.00000000000000E+00
     -1.50714557316999E-15  -1.10268504867147E-06  -1.10268505017862E-06  -4.34767293797715E-14
      2.59063036198625E-01
      8.00000000000000E-01   8.00000000000000E-01   0.00000000000000E+00   0.00000000000000E+00   1.14416516859933E-14
      2.80287539486227E-17   1.14696804399419E-14   5.80181341622675E-14   0.00000000000000E+00   0.00000000000000E+00