DF-ISE text

Info {
  version   = 1.0
  type      = xyplot
  datasets  = [
    "frequency"
    "v(Ntop)" "v(Ptop)" "v(Pbot)" "a(Ntop,Ntop)" "c(Ntop,Ntop)"
    "a(Ntop,Ptop)" "c(Ntop,Ptop)" "a(Ntop,Pbot)" "c(Ntop,Pbot)" "a(Ptop,Ntop)"
    "c(Ptop,Ntop)" "a(Ptop,Ptop)" "c(Ptop,Ptop)" "a(Ptop,Pbot)" "c(Ptop,Pbot)"
    "a(Pbot,Ntop)" "c(Pbot,Ntop)" "a(Pbot,Ptop)" "c(Pbot,Ptop)" "a(Pbot,Pbot)"
    "c(Pbot,Pbot)" ]
  functions = [
    Frequency
    Voltage Voltage Voltage Admittance Capacitance
    Admittance Capacitance Admittance Capacitance Admittance
    Capacitance Admittance Capacitance Admittance Capacitance
    Admittance Capacitance Admittance Capacitance Admittance
    Capacitance ]
}

Data {
      1.00000000000000E+04
      8.00000000000000E-01   0.00000000000000E+00  -5.00000000000000E-02   3.03840931016824E-13   3.97122479592929E-15
     -9.89922279736625E-15  -3.86604206701578E-15  -5.59128423261434E-15  -1.05182728914307E-16  -9.90996728770284E-15
     -3.86604208560510E-15  -6.07681862033647E-13   3.86605674817497E-15   1.41499028596721E-15  -1.46625654025133E-20
     -5.57686274209078E-15  -1.05182710325050E-16   1.40056899000102E-15  -1.46811546668941E-20  -6.07681862033647E-13
      1.05197391479115E-16
      1.00000000000000E+04
      8.00000000000000E-01   0.00000000000000E+00  -1.45555555555556E-01   3.03840931016824E-13   3.96707797954883E-15
     -9.84084826463794E-15  -3.86602598217659E-15  -5.28443635478225E-15  -1.01051997372735E-16  -9.85345322452776E-15
     -3.86602600131837E-15  -1.36728418957571E-12   3.86604646804975E-15   1.35977143810433E-15  -2.04667273510655E-20
     -5.27129129638612E-15  -1.01051978231026E-16   1.34663827359220E-15  -2.04858690822623E-20  -3.03840931016824E-13
      1.01072464100973E-16
      1.00000000000000E+04
      8.00000000000000E-01   0.00000000000000E+00  -3.28172839506173E-01   3.03840931016824E-13   3.96033892954078E-15
     -9.75691476896359E-15  -3.86597700801956E-15  -4.80383331703552E-15  -9.43619215216381E-17  -9.76080419047101E-15
     -3.86597702805375E-15  -1.51920465508412E-13   3.86601458142349E-15   1.27045878540086E-15  -3.75533660267919E-20
     -4.79408340819444E-15  -9.43619014874506E-17   1.26070674137991E-15  -3.75734002103208E-20   3.03840931016824E-13
      9.43994748883764E-17
      1.00000000000000E+04
      8.00000000000000E-01   0.00000000000000E+00  -6.77174759945130E-01   3.03840931016824E-13   3.95035176867886E-15
     -9.62987230633322E-15  -3.86575876656366E-15  -4.15349919551104E-15  -8.45930021157148E-17  -9.62858442268583E-15
     -3.86575878793101E-15  -1.36728418957571E-12   3.86586791292632E-15   1.14046611796679E-15  -1.09124991486221E-19
     -4.15584213586817E-15  -8.45929807483357E-17   1.14281242074884E-15  -1.09146358866894E-19  -1.51920465508412E-13
      8.47021271063236E-17
      1.00000000000000E+04
      8.00000000000000E-01   0.00000000000000E+00  -1.17717475994513E+00   3.03840931016824E-13   3.93933107383774E-15
     -9.53965302990144E-15  -3.86470609778321E-15  -3.51386822359629E-15  -7.46249760550576E-17  -9.48737780853863E-15
     -3.86470612079659E-15   1.67112512059253E-12   3.86512859537346E-15   1.00843586786214E-15  -4.22474573097544E-19
     -3.56455066857142E-15  -7.46249530416880E-17   1.05911859366408E-15  -4.22497586467429E-19   1.51920465508412E-13
      7.50474506286178E-17
      1.00000000000000E+04
      8.00000000000000E-01   0.00000000000000E+00  -1.67717475994513E+00   3.03840931016824E-13   3.92831865072110E-15
     -9.53285825652484E-15  -3.86116860581609E-15  -3.01048376920358E-15  -6.71500449051829E-17  -9.34241073666246E-15
     -3.86116863103644E-15  -1.21536372406729E-12   3.86250666754364E-15   9.07726431049705E-16  -1.33803650417734E-18
     -3.19957915513499E-15  -6.71500196848205E-17   1.09681268197066E-15  -1.33806172453718E-18  -3.03840931016824E-13
      6.84880814087743E-17
      1.00000000000000E+04
      8.00000000000000E-01   0.00000000000000E+00  -2.17717475994513E+00   3.03840931016824E-13   3.91260173900079E-15
     -9.55401009758141E-15  -3.85158661205144E-15  -2.46569615603077E-15  -6.10151269498388E-17  -9.08699071763378E-15
     -3.85158664062782E-15   1.06344325855888E-12   3.85495366554767E-15   8.17098664647412E-16  -3.36702491598551E-18
     -2.93439298823800E-15  -6.10150983734550E-17   1.28579913356014E-15  -3.36705349237184E-18  -3.03840931016824E-13
      6.43821518653406E-17
      1.00000000000000E+04
      8.00000000000000E-01   0.00000000000000E+00  -2.67717475994513E+00   3.03840931016824E-13   3.88590842376134E-15
     -9.43432262480318E-15  -3.83103019771257E-15  -1.94170428305413E-15  -5.48782260488491E-17  -8.53666157368970E-15
     -3.83103023041169E-15   6.07681862033647E-13   3.83794736874879E-15   7.09381656411607E-16  -6.91713833302509E-18
     -2.84030413385642E-15  -5.48781933497223E-17   1.60797930932887E-15  -6.91717103215300E-18   1.51920465508412E-13
      6.17953643816764E-17
      1.00000000000000E+04
      8.00000000000000E-01   0.00000000000000E+00  -3.17717475994513E+00   3.03840931016824E-13   3.84669415497776E-15
     -9.16427835607951E-15  -3.79828468362660E-15  -1.62304934141742E-15  -4.84094713508905E-17  -7.66204312248407E-15
     -3.79828472091014E-15   2.43072744813459E-12   3.80995510177190E-15   5.82616778471152E-16  -1.16703808589251E-17
     -3.12476410608908E-15  -4.84094340673644E-17   2.08433185839089E-15  -1.16704181424518E-17  -3.03840931016824E-13
      6.00798522096352E-17
      1.00000000000000E+04
      8.00000000000000E-01   0.00000000000000E+00  -3.67717475994513E+00   3.03840931016824E-13   3.80449136103333E-15
     -8.64435350399033E-15  -3.76187608985016E-15  -1.26026210025634E-15  -4.26152711837975E-17  -6.81952184848613E-15
     -3.76187612736918E-15   3.03840931016824E-13   3.77822619470835E-15   4.74983227941199E-16  -1.63500673354304E-17
     -3.08936374583872E-15  -4.26152336648072E-17   2.30409077286480E-15  -1.63501048544273E-17  -1.51920465508412E-13
      5.89653385190736E-17
      1.00000000000000E+04
      8.00000000000000E-01   0.00000000000000E+00  -4.17717475994513E+00   3.03840931016824E-13   3.76947888707852E-15
     -8.08738791038079E-15  -3.73123732725035E-15  -9.88483582357325E-16  -3.82415598284283E-17  -6.27873522419632E-15
     -3.73123736129002E-15   9.11522793050471E-13   3.75125060431229E-15   4.07515703926079E-16  -2.00132430190661E-17
     -2.79876939449884E-15  -3.82415257887608E-17   2.21780231255754E-15  -2.00132770587356E-17   1.51920465508412E-13
      5.82548028468263E-17
      1.00000000000000E+04
      8.00000000000000E-01   0.00000000000000E+00  -4.67717475994513E+00   3.03840931016824E-13   3.74267922958791E-15
     -7.35596126906870E-15  -3.70762329629609E-15  -7.78548860349477E-16  -3.50559332919487E-17  -5.84387685159594E-15
     -3.70762332485092E-15  -7.59602327542059E-13   3.73034617673202E-15   3.56580764473046E-16  -2.27228518778788E-17
     -2.28893412708296E-15  -3.50559047371318E-17   1.86695779864927E-15  -2.27228804326956E-17  -1.51920465508412E-13
      5.77787851691609E-17
      1.00000000000000E+04
      8.00000000000000E-01   0.00000000000000E+00  -5.17717475994513E+00   3.03840931016824E-13   3.72123364079974E-15
     -6.37208486634982E-15  -3.68865231857357E-15  -6.05449809919572E-16  -3.25813222262612E-17  -5.28105554657973E-15
     -3.68865234148361E-15  -3.03840931016824E-13   3.71349783685610E-15   2.99718844980666E-16  -2.48454953696405E-17
     -1.69555952360123E-15  -3.25812993162285E-17   1.38982992967297E-15  -2.48455182796728E-17  -1.51920465508412E-13
      5.74268175957021E-17
      1.00000000000000E+04
      8.00000000000000E-01   0.00000000000000E+00  -5.67717475994513E+00   3.03840931016824E-13   3.70284038460735E-15
     -5.46782354352371E-15  -3.67233699908015E-15  -4.75836221711567E-16  -3.05033855274424E-17  -4.72687128025298E-15
     -3.67233701781367E-15   1.21536372406729E-12   3.69897559329145E-15   2.47853160046143E-16  -2.66385754735203E-17
     -1.21490299617319E-15  -3.05033667939504E-17   9.86921407103422E-16  -2.66385942070138E-17  -3.03840931016824E-13
      5.71419610006536E-17
      1.00000000000000E+04
      8.00000000000000E-01   0.00000000000000E+00  -6.17717475994513E+00   3.03840931016824E-13   3.68619029289432E-15
     -4.82140646129607E-15  -3.65753562910032E-15  -3.90178786705739E-16  -2.86546637940700E-17  -4.30492847558604E-15
     -3.65753564527626E-15  -1.21536372406729E-12   3.68577742527384E-15   2.09659751012447E-16  -2.82417799949921E-17
     -9.07937428183281E-16  -2.86546476181063E-17   7.27417699163725E-16  -2.82417961709551E-17  -1.51920465508412E-13
      5.68964437877909E-17
      1.00000000000000E+04
      8.00000000000000E-01   0.00000000000000E+00  -6.67717475994513E+00   3.03840931016824E-13   3.67055104366445E-15
     -4.38463012068846E-15  -3.64360575380341E-15  -3.32604214874481E-16  -2.69452898612078E-17  -3.99535378651941E-15
     -3.64360576840823E-15  -2.12688651711777E-12   3.67333655535941E-15   1.81563345300065E-16  -2.97307869491074E-17
     -7.20121319744282E-16  -2.69452752564275E-17   5.69066728340198E-16  -2.97308015538891E-17   4.55761396525235E-13
      5.66760768098440E-17
      1.00000000000000E+04
      8.00000000000000E-01   0.00000000000000E+00  -7.17717475994513E+00   3.03840931016824E-13   3.65546696198790E-15
     -4.05806448391036E-15  -3.63014458174876E-15  -2.90205048517748E-16  -2.53223802393543E-17  -3.74877258482895E-15
     -3.63014459530614E-15   0.00000000000000E+00   3.66129517998090E-15   1.59238379796294E-16  -3.11505846709199E-17
     -5.99110757486967E-16  -2.53223666819820E-17   4.68148672322600E-16  -3.11505982282922E-17  -1.51920465508412E-13
      5.64729649097327E-17
      1.00000000000000E+04
      8.00000000000000E-01   0.00000000000000E+00  -7.67717475994513E+00   3.03840931016824E-13   3.64060159837465E-15
     -3.80318019729968E-15  -3.61685124009182E-15  -2.56102334103368E-16  -2.37503582830849E-17  -3.54313702918456E-15
     -3.61685125289595E-15   1.67112512059253E-12   3.64938316021622E-15   1.40213297520052E-16  -3.25319073167003E-17
     -5.16171122307167E-16  -2.37503454789520E-17   4.00278646794207E-16  -3.25319201208326E-17  -1.51920465508412E-13
      5.62822656001813E-17
      1.00000000000000E+04
      8.00000000000000E-01   0.00000000000000E+00  -8.17717475994513E+00   3.03840931016824E-13   3.62565022644389E-15
     -3.59060464788349E-15  -3.60344929229119E-15  -2.27133260595976E-16  -2.22009341530417E-17  -3.35919124165982E-15
     -3.60344930452549E-15   3.03840931016824E-13   3.63734902762479E-15   1.23178108584976E-16  -3.38997230963546E-17
     -4.57038795561116E-16  -2.22009219187421E-17   3.53086999249889E-16  -3.38997353306543E-17  -4.55761396525235E-13
      5.61006572490188E-17
      1.00000000000000E+04
      8.00000000000000E-01   0.00000000000000E+00  -8.67717475994513E+00   3.03840931016824E-13   3.61027592027953E-15
     -3.40753447184021E-15  -3.58962913747939E-15  -2.01607442876391E-16  -2.06467828007926E-17  -3.19186604407496E-15
     -3.58962914926336E-15   7.59602327542059E-13   3.62490785891973E-15   1.07317629092994E-16  -3.52787096523892E-17
     -4.12941489541205E-16  -2.06467710168207E-17   3.18635791803138E-16  -3.52787214363604E-17  -4.55761396525235E-13
      5.59254924537919E-17
      1.00000000000000E+04
      8.00000000000000E-01   0.00000000000000E+00  -9.17717475994513E+00   3.03840931016824E-13   3.59404390372958E-15
     -3.22699811020313E-15  -3.57498775619018E-15  -1.78458719025957E-16  -1.90561475398498E-17  -3.02977084803897E-15
     -3.57498776760037E-15   4.55761396525235E-13   3.61168583752050E-15   9.19665656532223E-17  -3.66980699167474E-17
     -3.78327001297593E-16  -1.90561361296388E-17   2.91818914451382E-16  -3.66980813269582E-17  -1.51920465508412E-13
      5.57542174563394E-17
      1.00000000000000E+04
      8.00000000000000E-01   0.00000000000000E+00  -9.67717475994513E+00   3.03840931016824E-13   3.57634164247174E-15
     -3.06342785915712E-15  -3.55895429788970E-15  -1.57031813917843E-16  -1.73873445825315E-17  -2.86585952785435E-15
     -3.55895430896808E-15   1.06344325855888E-12   3.59715088423013E-15   7.63083589541548E-17  -3.81965752578826E-17
     -3.51307173806081E-16  -1.73873335041678E-17   2.70585686369452E-16  -3.81965863362461E-17  -1.51920465508412E-13
      5.55839198401968E-17
      1.00000000000000E+04
      8.00000000000000E-01   0.00000000000000E+00  -1.01771747599451E+01   3.03840931016824E-13   3.55629886155258E-15
     -2.88105854201646E-15  -3.54071427970959E-15  -1.36659414928955E-16  -1.55845818438204E-17  -2.69023792208403E-15
     -3.54071429044796E-15   1.36728418957571E-12   3.58054081627497E-15   5.88927431152252E-17  -3.98265258233817E-17
     -3.31741199556536E-16  -1.55845711054298E-17   2.53974046135775E-16  -3.98265365617736E-17   1.51920465508412E-13
      5.54111076672800E-17
      1.00000000000000E+04
      8.00000000000000E-01   0.00000000000000E+00  -1.06771747599451E+01   3.03840931016824E-13   3.53282812064670E-15
     -2.68620238036466E-15  -3.51924371877028E-15  -1.15895002117249E-16  -1.35844018771111E-17  -2.48552243424949E-15
     -3.51924372904545E-15   1.21536372406729E-12   3.56089172931627E-15   3.64237996435610E-17  -4.16480002665916E-17
     -3.14469714403760E-16  -1.35843916019470E-17   2.34989713615144E-16  -4.16480105417551E-17   0.00000000000000E+00
      5.52324021433662E-17
      1.00000000000000E+04
      8.00000000000000E-01   0.00000000000000E+00  -1.11771747599451E+01   3.03840931016824E-13   3.50522720319005E-15
     -2.45698443828028E-15  -3.49386382805554E-15  -9.37970155216789E-17  -1.13633751348761E-17  -2.25777973384162E-15
     -3.49386383754099E-15   7.59602327542059E-13   3.53754865535033E-15  -1.39949531551563E-19  -4.36848178060486E-17
     -2.89909210060408E-16  -1.13633656494574E-17   1.95972223073667E-16  -4.36848272914679E-17  -1.51920465508412E-13
      5.50481929401390E-17
      1.00000000000000E+04
      8.00000000000000E-01   0.00000000000000E+00  -1.16771747599451E+01   3.03840931016824E-13   3.47503842528349E-15
     -2.21412854528866E-15  -3.46597172972306E-15  -7.19082299927367E-17  -9.06669556121015E-18  -2.04165738851034E-15
     -3.46597173784567E-15   1.97496605160935E-12   3.51177629287164E-15  -7.95448937475567E-17  -4.58045550222322E-17
     -2.38857426600739E-16  -9.06668743863876E-18   8.73963487737287E-17  -4.58045631448037E-17   3.03840931016824E-13
      5.48712505823043E-17
      1.00000000000000E+04
      8.00000000000000E-01   0.00000000000000E+00  -1.21771747599451E+01   3.03840931016824E-13   3.44764000688839E-15
     -2.00947911154617E-15  -3.44055052280447E-15  -5.43990278408128E-17  -7.08948408435607E-18  -1.95524319118211E-15
     -3.44055052891347E-15  -7.59602327542059E-13   3.48819090332889E-15  -3.03514145628537E-16  -4.76403744121078E-17
     -1.09595080700281E-16  -7.08947797535817E-18  -2.48333245128939E-16  -4.76403805211058E-17  -1.51920465508412E-13
      5.47298584963050E-17
      1.00000000000000E+04
      8.00000000000000E-01   0.00000000000000E+00  -1.26771747599451E+01   3.03840931016824E-13   3.42841561478333E-15
     -1.88727305208847E-15  -3.42264285976213E-15  -4.33090735120786E-17  -5.77275502133767E-18  -2.18634082184317E-15
     -3.42264286329108E-15  -1.82304558610094E-12   3.47151419949459E-15  -1.02795104906679E-15  -4.88713362002773E-17
      2.56095488160428E-16  -5.77275149239146E-18  -1.32736307410439E-15  -4.88713397292235E-17   1.51920465508412E-13
      5.46440912210444E-17
      1.00000000000000E+04
      8.00000000000000E-01   0.00000000000000E+00  -1.31771747599451E+01   3.03840931016824E-13   3.41746742960537E-15
     -1.81738010792364E-15  -3.41240242108872E-15  -3.62334620900853E-17  -5.06500851727073E-18  -3.21095197524959E-15
     -3.41240242080751E-15   3.03840931016824E-13   3.46194252569444E-15  -3.41409147395555E-15  -4.95401048838743E-17
      1.35839264377632E-15  -5.06500879848879E-18  -4.80871963360526E-15  -4.95401046026562E-17  -1.51920465508412E-13
      5.46051134006159E-17
      1.00000000000000E+04
      8.00000000000000E-01   0.00000000000000E+00  -1.36771747599451E+01   3.03840931016824E-13   3.41171597048366E-15
     -1.77142521224078E-15  -3.40699798098960E-15  -3.02762529394934E-17  -4.71798949449632E-18  -6.54058011372440E-15
     -3.40699797253743E-15  -1.36728418957571E-12   3.45687263762418E-15  -1.10711004771709E-14  -4.98746650829434E-17
      4.74249108148436E-15  -4.71799794667962E-18  -1.58438765547684E-14  -4.98746566307600E-17   4.55761396525235E-13
      5.45926545767825E-17
      1.00000000000000E+04
      8.00000000000000E-01   0.00000000000000E+00  -1.41771747599451E+01   3.03840931016824E-13   3.40857166494541E-15
     -1.71425071381295E-15  -3.40402893370421E-15  -2.38926841091210E-17  -4.54273124154254E-18  -1.67454232623865E-14
     -3.40402890334089E-15  -7.59602327542059E-13   3.45407885423713E-15  -3.47896846277938E-14  -5.00499508923428E-17
      1.50072929922950E-14  -4.54276160485846E-18  -4.98208586759175E-14  -5.00499205290267E-17  -1.51920465508412E-13
      5.45926821338573E-17
      1.00000000000000E+04
      8.00000000000000E-01   0.00000000000000E+00  -1.46771747599451E+01   3.03840931016824E-13   3.40664719239625E-15
     -1.64889408879669E-15  -3.40220381891934E-15  -1.63321863141766E-17  -4.44337347765002E-18  -4.69842407803065E-14
     -3.40220372691724E-15   1.51920465508412E-13   3.45235879433106E-15  -1.05573049016400E-13  -5.01550674103173E-17
      4.53170926348473E-14  -4.44346547973275E-18  -1.50906464932183E-13  -5.01549754082348E-17   3.03840931016824E-13
      5.45984408881456E-17
      1.00000000000000E+04
      8.00000000000000E-01   0.00000000000000E+00  -1.51771747599451E+01   3.03840931016824E-13   3.40530212908267E-15
     -1.59050769500358E-15  -3.40092451257083E-15  -7.01216026020267E-18  -4.37761651246173E-18  -1.33456595615609E-13
     -3.40092424974817E-15   3.79801163771029E-12   3.45115364457938E-15  -3.08883586540128E-13  -5.02293948277915E-17
      1.31867515744072E-13  -4.37787933517236E-18  -4.40758096546427E-13  -5.02291320050806E-17   4.55761396525235E-13
      5.46070113395095E-17
      1.00000000000000E+04
      8.00000000000000E-01   0.00000000000000E+00  -1.56771747599451E+01   3.03840931016824E-13   3.40424976505826E-15
     -1.52854952527821E-15  -3.39992245605129E-15   5.32915221748958E-18  -4.32730900742635E-18  -3.71603501593988E-13
     -3.39992173471596E-15   6.68450048237012E-12   3.45021137883869E-15  -8.70406094541218E-13  -5.02896441183875E-17
      3.70085403423437E-13  -4.32803034278039E-18  -1.24048616653036E-12  -5.02889227830333E-17   4.55761396525235E-13
      5.46169531263856E-17
      1.00000000000000E+04
      8.00000000000000E-01   0.00000000000000E+00  -1.61771747599451E+01   3.03840931016824E-13   3.40335892109864E-15
     -1.48286313932776E-15  -3.39907447477580E-15   2.43226561410855E-17  -4.28444632308736E-18  -1.00218098834448E-12
     -3.39907256772590E-15   5.92489815482806E-12   3.44941511348499E-15  -2.36005125012694E-12  -5.03425457550262E-17
      1.00072051896436E-12  -4.28635337296963E-18  -3.36074747044220E-12  -5.03406387051441E-17   2.73456837915141E-12
      5.46269920772339E-17
      1.00000000000000E+04
      8.00000000000000E-01   0.00000000000000E+00  -1.66771747599451E+01   3.03840931016824E-13   3.40256668655586E-15
     -1.48204723280964E-15  -3.39832145715002E-15   5.88772370403167E-17  -4.24522940596491E-18  -2.60501137505863E-12
     -3.39831660385940E-15   9.26714839601312E-12   3.44870630067334E-15  -6.15078975920004E-12  -5.03896968112190E-17
      2.60358830753222E-12  -4.25008269657865E-18  -8.75431919092475E-12  -5.03848435206053E-17   6.53258001686171E-12
      5.46349262168093E-17
      1.00000000000000E+04
      8.00000000000000E-01   0.00000000000000E+00  -1.71771747599451E+01   3.03840931016824E-13   3.40184106018615E-15
     -1.54514131859911E-15  -3.39763350728284E-15   1.27837020331537E-16  -4.20755290396758E-18  -6.50882169608999E-12
     -3.39762163615592E-15   2.12688651711777E-11   3.44805012636741E-15  -1.53877096692774E-11  -5.04284902081933E-17
      6.50740521597232E-12  -4.21942403088668E-18  -2.18949870650674E-11  -5.04166190812743E-17   1.56478079473664E-11
      5.46360431121912E-17
      1.00000000000000E+04
      8.00000000000000E-01   0.00000000000000E+00  -1.76771747599451E+01   3.03840931016824E-13   3.40116478496484E-15
     -1.71189235725794E-15  -3.39699494024052E-15   2.66027652938374E-16  -4.16984472484571E-18  -1.55972290116183E-11
     -3.39696708998312E-15   5.63624927036208E-11   3.44741759151831E-15  -3.68880323207861E-11  -5.04505015321559E-17
      1.55957777236166E-11  -4.19769498221138E-18  -5.24835440491187E-11  -5.04226512747905E-17   3.72205140495609E-11
      5.46203462561984E-17
      1.00000000000000E+04
      8.00000000000000E-01   0.00000000000000E+00  -1.81771747599451E+01   3.03840931016824E-13   3.40052820652628E-15
     -2.06967492115656E-15  -3.39639781353218E-15   5.25060604221377E-16  -4.13039299493950E-18  -3.57537753857082E-11
     -3.39633532167563E-15   1.20169088217154E-10   3.44677281747802E-15  -8.45295186529933E-11  -5.04374957991117E-17
      3.57522273776981E-11  -4.19288485147464E-18  -1.20281220962048E-10  -5.03750039425768E-17   8.49235402192022E-11
      5.45678887929804E-17
      1.00000000000000E+04
      8.00000000000000E-01   0.00000000000000E+00  -1.86771747599451E+01   3.03840931016824E-13   3.39992609011870E-15
     -2.67044479783758E-15  -3.39583926840793E-15   9.47523456034193E-16  -4.08682171128032E-18  -7.81349720838681E-11
     -3.39570568310184E-15   2.62062803002010E-10   3.44606088050055E-15  -1.84528882009317E-10  -5.03551973943206E-17
      7.81332468625950E-11  -4.22040701735176E-18  -2.62661181327091E-10  -5.02216120882493E-17   1.84583365592720E-10
      5.44420191051868E-17
      1.00000000000000E+04
      8.00000000000000E-01   0.00000000000000E+00  -1.91771747599451E+01   3.03840931016824E-13   3.39935622282973E-15
     -3.45751958761110E-15  -3.39532055789234E-15   1.49323075267423E-15  -4.03566493837829E-18  -1.62042910138206E-10
     -3.39504999899134E-15   5.43875266520114E-10   3.44519664484328E-15  -3.81972781128671E-10  -5.01466458480955E-17
      1.62040942950578E-10  -4.30622383935353E-18  -5.44012230851316E-10  -4.98760869471200E-17   3.81624209357130E-10
      5.41823107857612E-17
      1.00000000000000E+04
      8.00000000000000E-01   0.00000000000000E+00  -1.96771747599451E+01   3.03840931016824E-13   3.39881873893573E-15
     -4.19269876838810E-15  -3.39484648545045E-15   1.98425361204800E-15  -3.97225348601838E-18  -3.17065638936761E-10
     -3.39433094519374E-15   1.06101253111075E-09   3.44406197578853E-15  -7.45302055264228E-10  -4.97310305914168E-17
      3.17063428105643E-10  -4.48779374271924E-18  -1.06236349911012E-09  -4.92154903347158E-17   7.45169883318760E-10
      5.37032840782080E-17
      1.00000000000000E+04
      8.00000000000000E-01   0.00000000000000E+00  -2.01771747599451E+01   1.51920465508412E-13   3.39831548196042E-15
     -4.58691283386976E-15  -3.39442412376866E-15   2.22345822022569E-15  -3.89135819234969E-18  -5.81528866321866E-10
     -3.39350729982248E-15   1.94367043571462E-09   3.44252581828508E-15  -1.36166804476857E-09  -4.90185184593524E-17
      5.81526501152236E-10  -4.80818213852376E-18  -1.94319232246306E-09  -4.81016945131768E-17   1.36135929142088E-09
      5.29098766518758E-17
      1.00000000000000E+04
      8.00000000000000E-01   0.00000000000000E+00  -2.06771747599451E+01   0.00000000000000E+00   3.39784893472755E-15
     -4.59576576488055E-15  -3.39406002158973E-15   2.18071053623436E-15  -3.78891313875359E-18  -9.93982564108553E-10
     -3.39254909043675E-15   3.31110654575584E-09   3.44049727286755E-15  -2.31570047208484E-09  -4.79481824268378E-17
      9.93980150134273E-10  -5.29984429174566E-18  -3.30967844152729E-09  -4.64372512738432E-17   2.31587557621023E-09
      5.17370955642467E-17
      1.00000000000000E+04
      8.00000000000000E-01   0.00000000000000E+00  -2.11771747599451E+01   0.00000000000000E+00   3.39742072116650E-15
     -4.33581540536969E-15  -3.39375643169519E-15   1.96096588542369E-15  -3.66428947202853E-18  -1.57856824388786E-09
     -3.39145719056773E-15   5.22971010466157E-09   3.43799201353361E-15  -3.65462774465511E-09  -4.65348229616593E-17
      1.57856586184372E-09  -5.96353059944665E-18  -5.23319164552621E-09  -4.42355818342410E-17   3.65429487733934E-09
      5.01991124334197E-17
      1.00000000000000E+04
      8.00000000000000E-01   0.00000000000000E+00  -2.16771747599451E+01   0.00000000000000E+00   3.39703034903349E-15
     -3.98710276132115E-15  -3.39350882349599E-15   1.67940730869019E-15  -3.52152553851196E-18  -2.33263358124893E-09
     -3.39027155246841E-15   7.69310045288047E-09   3.43515754183341E-15  -5.36057827600531E-09  -4.48859893605965E-17
      2.33263127621561E-09  -6.75879656610384E-18  -7.69320787281542E-09  -4.16487183330028E-17   5.36081746639533E-09
      4.84075148981179E-17
      1.00000000000000E+04
      8.00000000000000E-01   0.00000000000000E+00  -2.21771747599451E+01   0.00000000000000E+00   3.39667498601228E-15
     -3.64567785948893E-15  -3.39330673779744E-15   1.41748888412550E-15  -3.36824821557155E-18  -3.22651608270292E-09
     -3.38905726845475E-15   1.05798931384713E-08   3.43222208275390E-15  -7.35325050935777E-09  -4.31648142957347E-17
      3.22651385238436E-09  -7.61771755824872E-18  -1.05797629442455E-08  -3.89153449530537E-17   7.35325437153815E-09
      4.65330625108722E-17
      1.00000000000000E+04
      8.00000000000000E-01   0.00000000000000E+00  -2.26771747599451E+01   3.03840931016824E-13   3.39635028793000E-15
     -3.38207371358032E-15  -3.39313731638935E-15   1.20992226375070E-15  -3.21297154163220E-18  -4.21567707864350E-09
     -3.38787838713472E-15   1.37358888889431E-08   3.42940382844519E-15  -9.52147976589836E-09  -4.15254413064539E-17
      4.21567490673253E-09  -8.47190079626343E-18  -1.37371534626909E-08  -3.62665120518205E-17   9.52131133480869E-09
      4.47384128475417E-17
      1.00000000000000E+04
      8.00000000000000E-01   0.00000000000000E+00  -2.31771747599451E+01  -3.03840931016824E-13   3.39605153915990E-15
     -3.18512577154148E-15  -3.39298885081628E-15   1.05243641900962E-15  -3.06268834393753E-18  -5.25556250746396E-09
     -3.38677902302413E-15   1.70156998188042E-08   3.42684804525367E-15  -1.17592738955642E-08  -4.00690222258191E-17
      5.25556037517641E-09  -9.27251613609107E-18  -1.70148332183164E-08  -3.38591944336562E-17   1.17590997917476E-08
      4.31317105698704E-17
      1.00000000000000E+04
      8.00000000000000E-01   0.00000000000000E+00  -2.36771747599451E+01  -1.51920465508412E-13   3.39577444643071E-15
     -3.03561863867548E-15  -3.39285257372609E-15   9.27020133007274E-16  -2.92187270580439E-18  -6.31080074617349E-09
     -3.38577959519733E-15   2.02987010784409E-08   3.42461713332742E-15  -1.39865444296519E-08  -3.88375381262638E-17
      6.31079864459694E-09  -9.99485123462405E-18  -2.02973421472333E-08  -3.17645595974359E-17   1.39864057365664E-08
      4.17594108323053E-17
      1.00000000000000E+04
      8.00000000000000E-01   0.00000000000000E+00  -2.41771747599451E+01   1.51920465508412E-13   3.39551544807715E-15
     -2.88540325246831E-15  -3.39272277407233E-15   8.19455311311409E-16  -2.79267400581995E-18  -7.35749802868807E-09
     -3.38488272113668E-15   2.35113631625473E-08   3.42271309847755E-15  -1.61527608045288E-08  -3.78303773364908E-17
      7.35749596106246E-09  -1.06327269414664E-17  -2.35102559461500E-08  -2.99903244008266E-17   1.61523358133199E-08
      4.06230513420625E-17
      1.00000000000000E+04
      8.00000000000000E-01   0.00000000000000E+00  -2.46771747599451E+01  -1.51920465508412E-13   3.39527171142956E-15
     -2.74942226384246E-15  -3.39259611248658E-15   7.23063897190581E-16  -2.67559894395317E-18  -8.38152666760708E-09
     -3.38408105768248E-15   2.66131233068326E-08   3.42110548654598E-15  -1.82313429347446E-08  -3.70244288581883E-17
      8.38152464239013E-09  -1.11906537480609E-17  -2.66128668540662E-08  -2.85093740540723E-17   1.82315193042680E-08
      3.97000278017095E-17
      1.00000000000000E+04
      8.00000000000000E-01   0.00000000000000E+00  -2.51771747599451E+01  -1.51920465508412E-13   3.39504100864255E-15
     -2.61645335112213E-15  -3.39247082069159E-15   6.36051870212869E-16  -2.57018795208127E-18  -9.37566795576747E-09
     -3.38336322021606E-15   2.95875741010218E-08   3.41975183337161E-15  -2.02119044659531E-08  -3.63886131510875E-17
      9.37566597704318E-09  -1.16777884276158E-17  -2.95875698069740E-08  -2.72810126755316E-17   2.02119544926356E-08
      3.89588011022727E-17
      1.00000000000000E+04
      8.00000000000000E-01   0.00000000000000E+00  -2.56771747599451E+01  -3.03840931016824E-13   3.39482157717396E-15
     -2.49290636673018E-15  -3.39234607046886E-15   5.58407592168842E-16  -2.47550670651491E-18  -1.03370665445041E-08
     -3.38271720437906E-15   3.24315252153392E-08   3.41860912225332E-15  -2.20937338388830E-08  -3.58919178688075E-17
      1.03370646108080E-08  -1.21043727963229E-17  -3.24307978912763E-08  -2.62630517789912E-17   2.20934894579573E-08
      3.83674245750159E-17
      1.00000000000000E+04
      8.00000000000000E-01   0.00000000000000E+00  -2.61771747599451E+01   0.00000000000000E+00   3.39461200341511E-15
     -2.37867485815075E-15  -3.39222155416157E-15   4.90175130699744E-16  -2.39044925504784E-18  -1.12653988935575E-08
     -3.38213198966313E-15   3.51464958544401E-08   3.41763889172759E-15  -2.38812902018172E-08  -3.55069020599983E-17
      1.12653970065698E-08  -1.24800137535047E-17  -3.51466867182416E-08  -2.54173375615252E-17   2.38817452574568E-08
      3.78973513148839E-17
      1.00000000000000E+04