DF-ISE text

Info {
  version   = 1.0
  type      = xyplot
  datasets  = [
    "frequency"
    "v(Ntop)" "v(Ptop)" "v(Pbot)" "a(Ntop,Ntop)" "c(Ntop,Ntop)"
    "a(Ntop,Ptop)" "c(Ntop,Ptop)" "a(Ntop,Pbot)" "c(Ntop,Pbot)" "a(Ptop,Ntop)"
    "c(Ptop,Ntop)" "a(Ptop,Ptop)" "c(Ptop,Ptop)" "a(Ptop,Pbot)" "c(Ptop,Pbot)"
    "a(Pbot,Ntop)" "c(Pbot,Ntop)" "a(Pbot,Ptop)" "c(Pbot,Ptop)" "a(Pbot,Pbot)"
    "c(Pbot,Pbot)" ]
  functions = [
    Frequency
    Voltage Voltage Voltage Admittance Capacitance
    Admittance Capacitance Admittance Capacitance Admittance
    Capacitance Admittance Capacitance Admittance Capacitance
    Admittance Capacitance Admittance Capacitance Admittance
    Capacitance ]
}

Data {
      1.00000000000000E+04
      8.00000000000000E-01   0.00000000000000E+00  -5.00000000000000E-02  -3.03840931016824E-13   1.46249757683701E-15
     -1.84055595050987E-15  -1.35731210557266E-15  -4.18150318674449E-15  -1.05185471264286E-16  -1.85417444506763E-15
     -1.35731210674311E-15   2.88648884465982E-12   1.35732491805689E-15   2.45416132035691E-16  -1.28113121784579E-20
     -4.16780839379767E-15  -1.05185470093842E-16   2.31723603713007E-16  -1.28124826264609E-20   0.00000000000000E+00
      1.05198282575957E-16
      1.00000000000000E+04
      8.00000000000000E-01   0.00000000000000E+00  -1.45555555555556E-01  -3.03840931016824E-13   1.45835417822274E-15
     -1.83075017332822E-15  -1.35729840408179E-15  -3.93903772619110E-15  -1.01055774140917E-16  -1.84380380906523E-15
     -1.35729840548622E-15   3.49417070669347E-12   1.35731629394262E-15   2.36153324061284E-16  -1.78884543066632E-20
     -3.92655348921295E-15  -1.01055772736515E-16   2.23676690369964E-16  -1.78898587170348E-20   0.00000000000000E+00
      1.01073662594897E-16
      1.00000000000000E+04
      8.00000000000000E-01   0.00000000000000E+00  -3.28172839506173E-01  -4.55761396525235E-13   1.45162541808753E-15
     -1.81770966110280E-15  -1.35725671157785E-15  -3.56110572211175E-15  -9.43687065097591E-17  -1.82700101769851E-15
     -1.35725671336991E-15   1.21536372406729E-12   1.35728954424038E-15   2.21287983549049E-16  -3.28308681038053E-20
     -3.55175632826703E-15  -9.43687047177119E-17   2.11940256452489E-16  -3.28326601545449E-20   3.03840931016824E-13
      9.44015373776989E-17
      1.00000000000000E+04
      8.00000000000000E-01   0.00000000000000E+00  -6.77174759945130E-01  -3.03840931016824E-13   1.44168332931460E-15
     -1.80605586033361E-15  -1.35707119222015E-15  -3.05703214452279E-15  -8.46121370944365E-17  -1.80461537786990E-15
     -1.35707119461143E-15   3.03840931016824E-12   1.35716656811726E-15   2.00123561552810E-16  -9.53735033260481E-20
     -3.05856252667474E-15  -8.46121347031761E-17   2.01657338332086E-16  -9.53758945891233E-20   4.55761396525235E-13
      8.47075105971948E-17
      1.00000000000000E+04
      8.00000000000000E-01   0.00000000000000E+00  -1.17717475994513E+00   0.00000000000000E+00   1.43087673431485E-15
     -1.83543494467250E-15  -1.35617974736419E-15  -2.56176849047259E-15  -7.46969869506355E-17  -1.79209730983238E-15
     -1.35617975058506E-15   1.21536372406729E-12   1.35654822198794E-15   1.79926749381397E-16  -3.68471400574712E-19
     -2.60574113793122E-15  -7.46969837297763E-17   2.23902771656333E-16  -3.68474621436098E-19  -1.51920465508412E-13
      7.50654583507335E-17
      1.00000000000000E+04
      8.00000000000000E-01   0.00000000000000E+00  -1.67717475994513E+00  -3.03840931016824E-13   1.42058178251899E-15
     -1.96513359158870E-15  -1.35320819065647E-15  -2.16410032089213E-15  -6.73735918625377E-17  -1.80153007618013E-15
     -1.35320819522880E-15   1.36728418957571E-12   1.35436952134622E-15   1.66086247641165E-16  -1.16132611557583E-18
     -2.32780141282182E-15  -6.73735872902124E-17   3.29784953541969E-16  -1.16133068790124E-18  -6.07681862033647E-13
      6.85349179785137E-17
      1.00000000000000E+04
      8.00000000000000E-01   0.00000000000000E+00  -2.17717475994513E+00   0.00000000000000E+00   1.40683899753837E-15
     -2.21719374970116E-15  -1.34526240988720E-15  -1.71084160375345E-15  -6.15765876511182E-17  -1.81551739301889E-15
     -1.34526241670405E-15   2.43072744813459E-12   1.34816180460322E-15   1.54514874033690E-16  -2.89938789800582E-18
     -2.11256976624203E-15  -6.15765808342868E-17   5.56249186597177E-16  -2.89939471483903E-18  -3.03840931016824E-13
      6.44759755489967E-17
      1.00000000000000E+04
      8.00000000000000E-01   0.00000000000000E+00  -2.67717475994513E+00  -3.03840931016824E-13   1.38446289022642E-15
     -2.54091700619082E-15  -1.32841935882167E-15  -1.28614872574134E-15  -5.60435314047440E-17  -1.78218778789693E-15
     -1.32841936866296E-15   1.97496605160935E-12   1.33432847456004E-15   1.38208741590095E-16  -5.90910589482047E-18
     -2.04531893252714E-15  -5.60435215634539E-17   8.97373717936658E-16  -5.90911573611117E-18   0.00000000000000E+00
      6.19526372991867E-17
      1.00000000000000E+04
      8.00000000000000E-01   0.00000000000000E+00  -3.17717475994513E+00   0.00000000000000E+00   1.35187281061794E-15
     -2.94569916533855E-15  -1.30152758776312E-15  -1.08633020831029E-15  -5.03452228548436E-17  -1.67560178393019E-15
     -1.30152760128445E-15   1.51920465508412E-13   1.31147996213256E-15   1.15485840712911E-16  -9.95236084639283E-18
     -2.35642495530231E-15  -5.03452093335316E-17   1.38558192468245E-15  -9.95237436770620E-18   0.00000000000000E+00
      6.02975837009357E-17
      1.00000000000000E+04
      8.00000000000000E-01   0.00000000000000E+00  -3.67717475994513E+00  -3.03840931016824E-13   1.31621256283547E-15
     -3.15529153867278E-15  -1.27101899918480E-15  -8.29115017715468E-16  -4.51935636506945E-17  -1.58970223293792E-15
     -1.27101901383774E-15  -7.59602327542059E-13   1.28504404084607E-15   9.78954834493001E-17  -1.40250270066050E-17
     -2.39529002284663E-15  -4.51935489977631E-17   1.66408166038422E-15  -1.40250416595371E-17  -1.51920465508412E-13
      5.92185906569058E-17
      1.00000000000000E+04
      8.00000000000000E-01   0.00000000000000E+00  -4.17717475994513E+00   4.55761396525235E-13   1.28628614162111E-15
     -3.20626352218362E-15  -1.24504139842806E-15  -6.37981486006740E-16  -4.12447431930196E-17  -1.61054842779278E-15
     -1.24504141180121E-15   7.59602327542059E-13   1.26231871003282E-15   9.29904635084729E-17  -1.72772982293886E-17
     -2.23379285956937E-15  -4.12447298198794E-17   1.68880709422954E-15  -1.72773116025291E-17  -3.03840931016824E-13
      5.85220414222021E-17
      1.00000000000000E+04
      8.00000000000000E-01   0.00000000000000E+00  -4.67717475994513E+00  -3.03840931016824E-13   1.26386576953379E-15
     -3.00851072681865E-15  -1.22547468288437E-15  -4.87568804374762E-16  -3.83910866494472E-17  -1.62233599875709E-15
     -1.22547469344335E-15   3.79801163771029E-12   1.24513866746424E-15   8.87574896725491E-17  -1.96639740184301E-17
     -1.87399380067934E-15  -3.83910760904616E-17   1.47517586114550E-15  -1.96639845774157E-17   0.00000000000000E+00
      5.80550606678508E-17
      1.00000000000000E+04
      8.00000000000000E-01   0.00000000000000E+00  -5.17717475994513E+00  -6.07681862033647E-13   1.24678241613969E-15
     -2.48501787769444E-15  -1.21054338481875E-15  -3.60600209889365E-16  -3.62390313209375E-17  -1.44312541405352E-15
     -1.21054339209298E-15   1.51920465508412E-12   1.23201878615335E-15   6.96098386571331E-17  -2.14753940578927E-17
     -1.40269630516511E-15  -3.62390240467089E-17   1.11170829785326E-15  -2.14754013321215E-17   4.55761396525235E-13
      5.77144253781495E-17
      1.00000000000000E+04
      8.00000000000000E-01   0.00000000000000E+00  -5.67717475994513E+00  -1.51920465508412E-13   1.23296777261312E-15
     -1.87834572017910E-15  -1.19846865858842E-15  -2.59671546519909E-16  -3.44991140247829E-17  -1.16410599618281E-15
     -1.19846866322630E-15  -3.03840931016824E-13   1.22141366071013E-15   4.40174929207022E-17  -2.29449974811751E-17
     -9.74405949753870E-16  -3.44991093869060E-17   7.58754570941100E-16  -2.29450021190520E-17   0.00000000000000E+00
      5.74441115056478E-17
      1.00000000000000E+04
      8.00000000000000E-01   0.00000000000000E+00  -6.17717475994513E+00  -1.51920465508412E-13   1.22118253172734E-15
     -1.43711405616279E-15  -1.18817247270444E-15  -1.93412931976956E-16  -3.30100590229058E-17  -9.45219397584882E-16
     -1.18817247573826E-15   1.21536372406729E-12   1.21237833351566E-15   2.52474606316774E-17  -2.42058577748446E-17
     -6.84977042050920E-16  -3.30100559890895E-17   5.16806593514258E-16  -2.42058608086611E-17  -6.07681862033647E-13
      5.72159167970618E-17
      1.00000000000000E+04
      8.00000000000000E-01   0.00000000000000E+00  -6.67717475994513E+00  -3.03840931016824E-13   1.21073903972679E-15
     -1.16173807017753E-15  -1.17905394328898E-15  -1.52328872289723E-16  -3.16850964378044E-17  -8.05759777689901E-16
     -1.17905394542230E-15  -1.82304558610094E-12   1.20438413820405E-15   1.37625554749808E-17  -2.53301927793469E-17
     -5.08435588122666E-16  -3.16850943044950E-17   3.69886506549550E-16  -2.53301949126563E-17   3.03840931016824E-13
      5.70152892174892E-17
      1.00000000000000E+04
      8.00000000000000E-01   0.00000000000000E+00  -7.17717475994513E+00   0.00000000000000E+00   1.20124182075901E-15
     -9.89552693174726E-16  -1.17076650608296E-15  -1.25070255733487E-16  -3.04753146760252E-17  -7.16802535051622E-16
     -1.17076650768668E-15   1.51920465508412E-13   1.19712542381301E-15   6.49649355128926E-18  -2.63589161239194E-17
     -3.98249826203178E-16  -3.04753130723066E-17   2.79691590600666E-16  -2.63589177276379E-17   4.55761396525235E-13
      5.68342308002081E-17
      1.00000000000000E+04
      8.00000000000000E-01   0.00000000000000E+00  -7.67717475994513E+00  -1.51920465508412E-13   1.19244780202801E-15
     -8.75172222224107E-16  -1.16309651363684E-15  -1.05041789009129E-16  -2.93512883912375E-17  -6.54953197362417E-16
     -1.16309651490365E-15  -4.55761396525235E-13   1.19041327351096E-15   1.40000051606327E-18  -2.73167586054827E-17
     -3.25279430242380E-16  -2.93512871244314E-17   2.21628176477542E-16  -2.73167598722889E-17  -1.51920465508412E-13
      5.66680469958822E-17
      1.00000000000000E+04
      8.00000000000000E-01   0.00000000000000E+00  -8.17717475994513E+00  -3.03840931016824E-13   1.18419780087249E-15
     -7.95404203582098E-16  -1.15590351249494E-15  -8.92848191469107E-17  -2.82942883775159E-17  -6.10194995770388E-16
     -1.15590351353191E-15   3.34225024118506E-12   1.18412306264561E-15  -2.54558720154854E-18  -2.82195491123797E-17
     -2.74559905327124E-16  -2.82942873405518E-17   1.82749549200826E-16  -2.82195501493440E-17   0.00000000000000E+00
      5.65138374901180E-17
      1.00000000000000E+04
      8.00000000000000E-01   0.00000000000000E+00  -8.67717475994513E+00  -6.07681862033647E-13   1.17638225250708E-15
     -7.36836801033392E-16  -1.14909035670339E-15  -7.66306309457762E-17  -2.72918958036836E-17  -5.75097407023999E-16
     -1.14909035757445E-15   1.21536372406729E-12   1.17816820844633E-15  -5.84487427588620E-18  -2.90778508698319E-17
     -2.38321364294793E-16  -2.72918949326298E-17   1.55854015972523E-16  -2.90778517408856E-17  -6.07681862033647E-13
      5.63697466736922E-17
      1.00000000000000E+04
      8.00000000000000E-01   0.00000000000000E+00  -9.17717475994513E+00  -3.03840931016824E-13   1.16892287944815E-15
     -6.91332405542446E-16  -1.14258725527730E-15  -6.63508630266725E-17  -2.63356241708899E-17  -5.46831930648821E-16
     -1.14258725602148E-15  -1.67112512059253E-12   1.17248618532369E-15  -8.76376681972839E-18  -2.98989292999019E-17
     -2.11106648248201E-16  -2.63356234267139E-17   1.35983033764899E-16  -2.98989300440778E-17  -1.51920465508412E-13
      5.62345534702233E-17
      1.00000000000000E+04
      8.00000000000000E-01   0.00000000000000E+00  -9.67717475994513E+00  -4.55761396525235E-13   1.16176210424201E-15
     -6.54819704751050E-16  -1.13634258590882E-15  -5.79885352643879E-17  -2.54195183332233E-17  -5.23357633804002E-16
     -1.13634258655087E-15   1.21536372406729E-12   1.16703049580798E-15  -1.14897013931013E-17  -3.06879092550090E-17
     -1.89505665100517E-16  -2.54195176911732E-17   1.20035634227891E-16  -3.06879098970592E-17  -1.51920465508412E-13
      5.61074275882006E-17
      1.00000000000000E+04
      8.00000000000000E-01   0.00000000000000E+00  -1.01771747599451E+01   0.00000000000000E+00   1.15485657560371E-15
     -6.23897580428064E-16  -1.13031728559669E-15  -5.13138935921269E-17  -2.45392900070083E-17  -5.04375234988234E-16
     -1.13031728615264E-15   9.11522793050471E-13   1.16176577638527E-15  -1.43234206502786E-17  -3.14484902314182E-17
     -1.71634955252250E-16  -2.45392894510498E-17   1.05993772145885E-16  -3.14484907873767E-17  -3.03840931016824E-13
      5.59877802383105E-17
      1.00000000000000E+04
      8.00000000000000E-01   0.00000000000000E+00  -1.06771747599451E+01  -4.55761396525235E-13   1.14817310894837E-15
     -5.99161668475112E-16  -1.12448132656334E-15  -4.62511056451417E-17  -2.36917823850014E-17  -4.89978552860408E-16
     -1.12448132704131E-15   3.03840931016824E-13   1.15666471915361E-15  -1.80825609694607E-17  -3.21833921102270E-17
     -1.55577074231772E-16  -2.36917819070305E-17   9.12607595068357E-17  -3.21833925881979E-17   0.00000000000000E+00
      5.58751744948515E-17
      1.00000000000000E+04
      8.00000000000000E-01   0.00000000000000E+00  -1.11771747599451E+01  -4.55761396525235E-13   1.14168613895167E-15
     -5.78670485261151E-16  -1.11881149424146E-15  -4.25562058834339E-17  -2.28746447101425E-17  -4.86446465137514E-16
     -1.11881149463162E-15  -2.27880698262618E-12   1.15170612353698E-15  -2.54033794292029E-17  -3.28946289049805E-17
     -1.34855136901868E-16  -2.28746443199839E-17   6.68988793922361E-17  -3.28946292951389E-17  -3.03840931016824E-13
      5.57692736148910E-17
      1.00000000000000E+04
      8.00000000000000E-01   0.00000000000000E+00  -1.16771747599451E+01  -4.55761396525235E-13   1.13537613545334E-15
     -5.60576066561026E-16  -1.11328999839795E-15  -3.96758635265392E-17  -2.20861370554127E-17  -5.11938606312899E-16
     -1.11328999864103E-15   1.67112512059253E-12   1.14687367363303E-15  -4.48783742071301E-17  -3.35836749891845E-17
     -8.88310853101502E-17  -2.20861368123314E-17   4.27318218071809E-18  -3.35836752322657E-17   1.51920465508412E-13
      5.56698120438360E-17
      1.00000000000000E+04
      8.00000000000000E-01   0.00000000000000E+00  -1.21771747599451E+01  -3.03840931016824E-13   1.12922862649938E-15
     -5.44518815038430E-16  -1.10790361530945E-15  -3.73139077279755E-17  -2.13250111899590E-17  -6.22209951507471E-16
     -1.10790361521227E-15  -1.06344325855888E-12   1.14215518282670E-15  -1.03821749348011E-16  -3.42515676120793E-17
      4.00840145694709E-17  -2.13250112871291E-17  -1.81241761274057E-16  -3.42515675149095E-17   0.00000000000000E+00
      5.55765788015711E-17
      1.00000000000000E+04
      8.00000000000000E-01   0.00000000000000E+00  -1.26771747599451E+01   0.00000000000000E+00   1.12323359771173E-15
     -5.29972246277738E-16  -1.10264316450052E-15  -3.52862356991139E-17  -2.05904332111851E-17  -9.89857719496564E-16
     -1.10264316348101E-15   1.21536372406729E-12   1.13754213730362E-15  -2.88301845231710E-16  -3.48989738208822E-17
      4.24379684243564E-16  -2.05904342306892E-17  -7.47970085749389E-16  -3.48989728013780E-17   3.03840931016824E-13
      5.54894070318830E-17
      1.00000000000000E+04
      8.00000000000000E-01   0.00000000000000E+00  -1.31771747599451E+01  -3.03840931016824E-13   1.11738511974483E-15
     -5.16105308182341E-16  -1.09750319210413E-15  -3.34220685945367E-17  -1.98819276406157E-17  -2.12769567054964E-15
     -1.09750318845717E-15  -7.59602327542059E-13   1.13302942719368E-15  -8.64601594328908E-16  -3.55262387347745E-17
      1.57706785959472E-15  -1.98819312875591E-17  -2.47511143112689E-15  -3.55262350878311E-17   4.55761396525235E-13
      5.54081663758603E-17
      1.00000000000000E+04
      8.00000000000000E-01   0.00000000000000E+00  -1.36771747599451E+01   0.00000000000000E+00   1.11168110438358E-15
     -5.05018970353418E-16  -1.09248177328523E-15  -3.15584484509523E-17  -1.91993310983264E-17  -5.52196425314511E-15
     -1.09248176214204E-15   0.00000000000000E+00   1.12861518737733E-15  -2.63439024304964E-15  -3.61334252334549E-17
      4.98513427473138E-15  -1.91993422415211E-17  -7.65112155239761E-15  -3.61334140902601E-17   1.51920465508412E-13
      5.53327563315809E-17
      1.00000000000000E+04
      8.00000000000000E-01   0.00000000000000E+00  -1.41771747599451E+01  -3.03840931016824E-13   1.10612311464750E-15
     -4.94842919549456E-16  -1.08758036668657E-15  -2.95070962294011E-17  -1.85427479608707E-17  -1.53746089703409E-14
     -1.08758033447838E-15   0.00000000000000E+00   1.12430068571508E-15  -7.94865478911251E-15  -3.67203512345155E-17
      1.48504293238632E-14  -1.85427801690643E-17  -2.28285964912655E-14  -3.67203190263219E-17  -4.55761396525235E-13
      5.52630991951783E-17
      1.00000000000000E+04
      8.00000000000000E-01   0.00000000000000E+00  -1.46771747599451E+01   0.00000000000000E+00   1.10071616562205E-15
     -4.86050375107519E-16  -1.08280366327949E-15  -2.70828313213853E-17  -1.79125023425320E-17  -4.32406729820352E-14
     -1.08280357313414E-15  -7.59602327542059E-13   1.12009020121316E-15  -2.35114161458127E-14  -3.72866280760723E-17
      4.27271809471527E-14  -1.79125924878788E-17  -6.62656913536067E-14  -3.72865379307256E-17   9.11522793050471E-13
      5.51991304182311E-17
      1.00000000000000E+04
      8.00000000000000E-01   0.00000000000000E+00  -1.51771747599451E+01  -3.03840931016824E-13   1.09546845963324E-15
     -4.78944092302886E-16  -1.07815937808802E-15  -2.40118913352074E-17  -1.73090815452136E-17  -1.19984016193523E-13
     -1.07815913244774E-15  -1.06344325855888E-12   1.11599083263778E-15  -6.78758477357310E-14  -3.78317001870263E-17
      1.19480260727306E-13  -1.73093271854944E-17  -1.87380108506060E-13  -3.78314545467455E-17  -1.51920465508412E-13
      5.51407817328861E-17
      1.00000000000000E+04
      8.00000000000000E-01   0.00000000000000E+00  -1.56771747599451E+01   3.03840931016824E-13   1.09039100866774E-15
     -4.76083208701996E-16  -1.07365794239828E-15  -1.97946240440040E-17  -1.67330662694936E-17  -3.25551368133061E-13
     -1.07365729036360E-15   1.67112512059253E-12   1.11201217019372E-15  -1.90774596735803E-13  -3.83548798280843E-17
      3.25055542867689E-13  -1.67337183041715E-17  -5.15849929716824E-13  -3.83542277934065E-17  -3.03840931016824E-13
      5.50879460972250E-17
      1.00000000000000E+04
      8.00000000000000E-01   0.00000000000000E+00  -1.61771747599451E+01   0.00000000000000E+00   1.08549711397988E-15
     -4.77681581057922E-16  -1.06931207185734E-15  -1.33947525979871E-17  -1.61850421226000E-17  -8.60338058951472E-13
     -1.06931038734733E-15   5.92489815482806E-12   1.10816574471211E-15  -5.21055762561712E-13  -3.88553573629973E-17
      8.59846216202018E-13  -1.61867266326205E-17  -1.38091538524989E-12  -3.88536728529770E-17   7.59602327542059E-13
      5.50403994857586E-17
      1.00000000000000E+04
      8.00000000000000E-01   0.00000000000000E+00  -1.66771747599451E+01  -7.59602327542059E-13   1.08080170163828E-15
     -4.92237327768583E-16  -1.06513621729996E-15  -2.52624884177876E-18  -1.56654843383651E-17  -2.20937285449754E-12
     -1.06513198746409E-15   4.55761396525235E-12   1.10446412806199E-15  -1.38059681749000E-12  -3.93321405961081E-17
      2.20887799551292E-12  -1.56697141742331E-17  -3.58947734557828E-12  -3.93279107602402E-17   1.21536372406729E-12
      5.49976249346579E-17
      1.00000000000000E+04
      8.00000000000000E-01   0.00000000000000E+00  -1.71771747599451E+01   4.55761396525235E-13   1.07632055559451E-15
     -5.30405897605509E-16  -1.06114595405515E-15   1.78456629703822E-17  -1.51746015393640E-17  -5.50327314617569E-12
     -1.06113564693370E-15   8.50754606847106E-12   1.10091947249572E-15  -3.54256253632971E-12  -3.97838255599259E-17
      5.50276056137546E-12  -1.51849086608102E-17  -9.04530524489047E-12  -3.97735184384796E-17   3.64609117220188E-12
      5.49584270988790E-17
      1.00000000000000E+04
      8.00000000000000E-01   0.00000000000000E+00  -1.76771747599451E+01   1.51920465508412E-13   1.07206954535532E-15
     -6.18818074773371E-16  -1.05735743220597E-15   5.84153940026974E-17  -1.47121131493838E-17  -1.32720507192384E-11
     -1.05733310267241E-15   2.09650242401608E-11   1.09754111523304E-15  -8.78662574125963E-12  -4.02080125586789E-17
      1.32714901418843E-11  -1.47364426829376E-17  -2.20580574599644E-11  -4.01836830251252E-17   8.81138699948788E-12
      5.49201257080040E-17
      1.00000000000000E+04
      8.00000000000000E-01   0.00000000000000E+00  -1.81771747599451E+01   3.03840931016824E-13   1.06806400511766E-15
     -8.09477698177189E-16  -1.05378708605763E-15   1.40101803181131E-16  -1.42769190600414E-17  -3.09271622347444E-11
     -1.05373157436579E-15   5.18048787383684E-11   1.09433162421645E-15  -2.10207906421651E-11  -4.06000498491645E-17
      3.09264926415867E-11  -1.43324307518811E-17  -5.19471432062292E-11  -4.05445381573248E-17   2.12688651711777E-11
      5.48769689089906E-17
      1.00000000000000E+04
      8.00000000000000E-01   0.00000000000000E+00  -1.86771747599451E+01  -3.03840931016824E-13   1.06431846272309E-15
     -1.18522420487739E-15  -1.05045185538625E-15   2.98229948182712E-16  -1.38666073369142E-17  -6.94644172549097E-11
     -1.05032975224818E-15   1.17434519838002E-10   1.09128040219749E-15  -4.83809455555432E-11  -4.09506499469221E-17
      6.94635303401230E-11  -1.39887104749883E-17  -1.17844177688385E-10  -4.08285468088479E-17   4.80068671006581E-11
      5.48172572833266E-17
      1.00000000000000E+04
      8.00000000000000E-01   0.00000000000000E+00  -1.91771747599451E+01  -4.55761396525235E-13   1.06084688999471E-15
     -1.84897089643006E-15  -1.04737012697048E-15   5.76521228284416E-16  -1.34767630242615E-17  -1.49915815098949E-10
     -1.04711211692521E-15   2.56441745778199E-10   1.08835406053600E-15  -1.06777583260934E-10  -4.12419436081370E-17
      1.49914542221056E-10  -1.37347730695338E-17  -2.56691548942222E-10  -4.09839335628647E-17   1.07103928183430E-10
      5.47187066324028E-17
      1.00000000000000E+04
      8.00000000000000E-01   0.00000000000000E+00  -1.96771747599451E+01   1.51920465508412E-13   1.05766345802425E-15
     -2.83610489665891E-15  -1.04456330890881E-15   9.90095783622010E-16  -1.31001491155456E-17  -3.09617671436598E-10
     -1.04404202237482E-15   5.34152356727576E-10   1.08548416747078E-15  -2.25028144674838E-10  -4.14421450936586E-17
      3.09615824370287E-10  -1.36214356495303E-17  -5.34642978959629E-10  -4.09208585596737E-17   2.25601891279992E-10
      5.45422942096933E-17
      1.00000000000000E+04
      8.00000000000000E-01   0.00000000000000E+00  -2.01771747599451E+01  -1.51920465508412E-13   1.05478331313508E-15
     -3.96341874386561E-15  -1.04205719652283E-15   1.45919376434594E-15  -1.27261166123005E-17  -6.08739842385922E-10
     -1.04105631811841E-15   1.05994908785219E-09   1.08255725363429E-15  -4.50422477101462E-10  -4.15009355128956E-17
      6.08737337465708E-10  -1.37269950167228E-17  -1.05915835538006E-09  -4.05000571084728E-17   4.51203782559983E-10
      5.42270521249900E-17
      1.00000000000000E+04
      8.00000000000000E-01   0.00000000000000E+00  -2.06771747599451E+01  -6.07681862033647E-13   1.05222215668075E-15
     -4.83133274884269E-15  -1.03988109001891E-15   1.80899903825974E-15  -1.23410666618103E-17  -1.13229314966097E-09
     -1.03806843480061E-15   1.98590432512596E-09   1.07941966346366E-15  -8.50878300659338E-10  -4.13512286613110E-17
      1.13229012723460E-09  -1.41537218801128E-17  -1.98316661890195E-09  -3.95385734430073E-17   8.50602686381598E-10
      5.36922953230611E-17
      1.00000000000000E+04
      8.00000000000000E-01   0.00000000000000E+00  -2.11771747599451E+01   0.00000000000000E+00   1.04999297171263E-15
     -5.16473072434175E-15  -1.03806192058707E-15   1.91823656376804E-15  -1.19310511256188E-17  -1.97967854793737E-09
     -1.03498946039316E-15   3.48900541086619E-09   1.07591498379440E-15  -1.50702916129829E-09  -4.09255233997351E-17
      1.97967530143242E-09  -1.50035113195375E-17  -3.48670254450032E-09  -3.78530632058152E-17   1.50735485877446E-09
      5.28565745249525E-17
      1.00000000000000E+04
      8.00000000000000E-01   0.00000000000000E+00  -2.16771747599451E+01   3.03840931016824E-13   1.04809940023637E-15
     -5.05783611154124E-15  -1.03661267516489E-15   1.82912369455092E-15  -1.14867250715506E-17  -3.23664685113822E-09
     -1.03176873549623E-15   5.72557850408102E-09   1.07195767583442E-15  -2.48954091108611E-09  -4.01889403358669E-17
      3.23664362260539E-09  -1.63306647402082E-17  -5.72618270457104E-09  -3.53450006672068E-17   2.48967258875185E-09
      5.16756654071129E-17
      1.00000000000000E+04
      8.00000000000000E-01   0.00000000000000E+00  -2.21771747599451E+01  -6.07681862033647E-13   1.04652862862916E-15
     -4.73969988072168E-15  -1.03552017763430E-15   1.64870356181915E-15  -1.10084509948025E-17  -4.93857833290194E-09
     -1.02843287221372E-15   8.76474741657680E-09   1.06760509170212E-15  -3.82845793055083E-09  -3.91722194860639E-17
      4.93857524147459E-09  -1.80957564153854E-17  -8.76703152332303E-09  -3.20849140654765E-17   3.82809188988096E-09
      5.01806704808595E-17
      1.00000000000000E+04
      8.00000000000000E-01   0.00000000000000E+00  -2.26771747599451E+01   3.03840931016824E-13   1.04524922825155E-15
     -4.33372598845050E-15  -1.03474160434562E-15   1.44057338430916E-15  -1.05076239060184E-17  -7.04930874977978E-09
     -1.02508783398579E-15   1.25439209165641E-08   1.06306271468634E-15  -5.49466767269456E-09  -3.79748806980270E-17
      7.04930585620131E-09  -2.01613942658404E-17  -1.25439720883286E-08  -2.83211103381990E-17   5.49465939650824E-09
      4.84825046038714E-17
      1.00000000000000E+04
      8.00000000000000E-01   0.00000000000000E+00  -2.31771747599451E+01   0.00000000000000E+00   1.04421667542443E-15
     -3.90555383442283E-15  -1.03421413641156E-15   1.23560015147187E-15  -1.00025390129014E-17  -9.47327432592547E-09
     -1.02187463051589E-15   1.68832251728808E-08   1.05860368935544E-15  -7.40905108010647E-09  -3.67290588376056E-17
      9.47327165551005E-09  -2.23420449085641E-17  -1.68823215000010E-08  -2.43895529419388E-17   7.40931302331075E-09
      4.67315978501846E-17
      1.00000000000000E+04
      8.00000000000000E-01   0.00000000000000E+00  -2.36771747599451E+01  -6.07681862033647E-13   1.04338306997699E-15
     -3.51902627220672E-15  -1.03387134282384E-15   1.05686232536448E-15  -9.51172715326087E-18  -1.20913463975064E-08
     -1.01891253664078E-15   2.15645023970570E-08   1.05446376976169E-15  -9.47207985032115E-09  -3.55512331184014E-17
      1.20913439352348E-08  -2.44705333363246E-17  -2.15634227287150E-08  -2.05924269353255E-17   9.47239294491498E-09
      4.50629602709320E-17
      1.00000000000000E+04
      8.00000000000000E-01   0.00000000000000E+00  -2.41771747599451E+01  -1.51920465508412E-13   1.04270520711904E-15
     -3.21546862813286E-15  -1.03365613363730E-15   9.15846576525723E-16  -9.04907348176000E-18  -1.47949755581451E-08
     -1.01626811811107E-15   2.63891925406732E-08   1.05078256647003E-15  -1.15926738857484E-08  -3.45144483572232E-17
      1.47949732581440E-08  -2.64370890079988E-17  -2.63876462280508E-08  -1.71264328309749E-17   1.15928988024814E-08
      4.35635218376639E-17
      1.00000000000000E+04
      8.00000000000000E-01   0.00000000000000E+00  -2.46771747599451E+01   3.03840931016824E-13   1.04214824331550E-15
     -2.99507018896587E-15  -1.03352587168425E-15   8.10179057074477E-16  -8.62237163128115E-18  -1.75034023277463E-08
     -1.01395646742757E-15   3.12061347405484E-08   1.04760411887965E-15  -1.37030658411955E-08  -3.36476514510885E-17
      1.75034001424107E-08  -2.81917758879575E-17  -3.12064651734702E-08  -1.40782471943860E-17   1.37026183069967E-08
      4.22700230827640E-17
      1.00000000000000E+04
      8.00000000000000E-01   0.00000000000000E+00  -2.51771747599451E+01   1.51920465508412E-13   1.04168579866396E-15
     -2.83625334357604E-15  -1.03345152563236E-15   7.30354030435608E-16  -8.23427303164390E-18  -2.01652586707329E-08
     -1.01195840742830E-15   3.59246324787741E-08   1.04490759118588E-15  -1.57604114830805E-08  -3.29491837563990E-17
      2.01652565646626E-08  -2.97273912357172E-17  -3.59256673174447E-08  -1.14560655522917E-17   1.57597733304461E-08
      4.11834567870253E-17
      1.00000000000000E+04
      8.00000000000000E-01   0.00000000000000E+00  -2.56771747599451E+01  -3.03840931016824E-13   1.04129843147898E-15
     -2.71254602924280E-15  -1.03341441391436E-15   6.66612530219230E-16  -7.88401756467668E-18  -2.27525006533433E-08
     -1.01023825158950E-15   4.04945520017327E-08   1.04263969021775E-15  -1.77417475294248E-08  -3.24014386261390E-17
      2.27524986070782E-08  -3.10601798895384E-17  -4.04942454699210E-08  -9.22527630125722E-18   1.77412719620723E-08
      4.02854561906071E-17
      1.00000000000000E+04
      8.00000000000000E-01   0.00000000000000E+00  -2.61771747599451E+01  -1.51920465508412E-13   1.04097184208056E-15
     -2.60345835873043E-15  -1.03340286212526E-15   6.11994411453962E-16  -7.56897995539541E-18  -2.52528972785091E-08
     -1.00875593152238E-15   4.48891553074945E-08   1.04073711103945E-15  -1.96376142931389E-08  -3.19811795152067E-17
      2.52528952874015E-08  -3.22159105582556E-17  -4.48905089685166E-08  -7.33424891233801E-18   1.96373912920828E-08
      3.95501594705299E-17
      1.00000000000000E+04