DF-ISE text

Info {
  version   = 1.0
  type      = xyplot
  datasets  = [
    "frequency"
    "v(Ntop)" "v(Ptop)" "v(Pbot)" "a(Ntop,Ntop)" "c(Ntop,Ntop)"
    "a(Ntop,Ptop)" "c(Ntop,Ptop)" "a(Ntop,Pbot)" "c(Ntop,Pbot)" "a(Ptop,Ntop)"
    "c(Ptop,Ntop)" "a(Ptop,Ptop)" "c(Ptop,Ptop)" "a(Ptop,Pbot)" "c(Ptop,Pbot)"
    "a(Pbot,Ntop)" "c(Pbot,Ntop)" "a(Pbot,Ptop)" "c(Pbot,Ptop)" "a(Pbot,Pbot)"
    "c(Pbot,Pbot)" ]
  functions = [
    Frequency
    Voltage Voltage Voltage Admittance Capacitance
    Admittance Capacitance Admittance Capacitance Admittance
    Capacitance Admittance Capacitance Admittance Capacitance
    Admittance Capacitance Admittance Capacitance Admittance
    Capacitance ]
}

Data {
      1.00000000000000E+04
      8.00000000000000E-01   0.00000000000000E+00  -5.00000000000000E-02   0.00000000000000E+00   1.53372782001765E-15
     -3.82305587686998E-15  -1.42854479686074E-15  -4.60421074410324E-15  -1.05183023157217E-16  -3.83755757691260E-15
     -1.42854480095454E-15  -7.59602327542059E-13   1.42855925923474E-15   5.93957372725596E-16  -1.44582783989583E-20
     -4.58987592919676E-15  -1.05183019063405E-16   5.79618904387600E-16  -1.44623722065028E-20   1.51920465508412E-13
      1.05197481434749E-16
      1.00000000000000E+04
      8.00000000000000E-01   0.00000000000000E+00  -1.45555555555556E-01   0.00000000000000E+00   1.52958137271638E-15
     -3.79948912527585E-15  -1.42852897610128E-15  -4.34240831687580E-15  -1.01052396615386E-16  -3.81342852308607E-15
     -1.42852898048639E-15   6.07681862033647E-13   1.42854916771473E-15   5.71005371477884E-16  -2.01872255787571E-20
     -4.32934258690285E-15  -1.01052392230306E-16   5.57947278470462E-16  -2.01916106705615E-20   0.00000000000000E+00
      1.01072583840709E-16
      1.00000000000000E+04
      8.00000000000000E-01   0.00000000000000E+00  -3.28172839506173E-01   1.51920465508412E-13   1.52284343354287E-15
     -3.76515861507131E-15  -1.42848080600764E-15  -3.93369497050144E-15  -9.43626275357153E-17  -3.77448613589325E-15
     -1.42848081087357E-15   4.55761396525235E-13   1.42851786207578E-15   5.33977508652704E-16  -3.70511979220028E-20
     -3.92399781820050E-15  -9.43626226697807E-17   5.24273861399778E-16  -3.70560638503582E-20  -3.03840931016824E-13
      9.43996787323428E-17
      1.00000000000000E+04
      8.00000000000000E-01   0.00000000000000E+00  -6.77174759945130E-01   1.51920465508412E-13   1.51286114206895E-15
     -3.72210438335332E-15  -1.42826616900353E-15  -3.38604948342436E-15  -8.45949730657991E-17  -3.71938523059682E-15
     -1.42826617461429E-15  -1.51920465508412E-13   1.42837385700908E-15   4.80487463754542E-16  -1.07682391423284E-19
     -3.38831624645835E-15  -8.45949674550596E-17   4.82754532409181E-16  -1.07688002164637E-19   0.00000000000000E+00
      8.47026554563771E-17
      1.00000000000000E+04
      8.00000000000000E-01   0.00000000000000E+00  -1.17717475994513E+00   0.00000000000000E+00   1.50186364539932E-15
     -3.72179696284943E-15  -1.42723126166550E-15  -2.84892779197102E-15  -7.46323837340997E-17  -3.67171117085233E-15
     -1.42723126831089E-15  -3.03840931016824E-13   1.42764810050060E-15   4.27334969133986E-16  -4.16832186578233E-19
     -2.89891278351287E-15  -7.46323770887119E-17   4.77321296367521E-16  -4.16838831966163E-19  -3.03840931016824E-13
      7.50492159216633E-17
      1.00000000000000E+04
      8.00000000000000E-01   0.00000000000000E+00  -1.67717475994513E+00  -7.59602327542059E-13   1.49092942376233E-15
     -3.83003693406680E-15  -1.42375629874992E-15  -2.42268175524811E-15  -6.71731250127532E-17  -3.64330474009995E-15
     -1.42375630707751E-15   1.51920465508412E-13   1.42507586562488E-15   3.88265553038878E-16  -1.31955854512480E-18
     -2.60911292297263E-15  -6.71731166851686E-17   5.74696852477957E-16  -1.31956687270994E-18   1.51920465508412E-13
      6.84926835564548E-17
      1.00000000000000E+04
      8.00000000000000E-01   0.00000000000000E+00  -2.17717475994513E+00   3.03840931016824E-13   1.47543008532391E-15
     -4.05028297343966E-15  -1.41435656728773E-15  -1.94533499372171E-15  -6.10735180365599E-17  -3.58775454865303E-15
     -1.41435657845473E-15  -1.36728418957571E-12   1.41767448428723E-15   3.53729371393686E-16  -3.31790582924613E-18
     -2.40699155639703E-15  -6.10735068695573E-17   8.15392159190724E-16  -3.31791699624934E-18  -1.51920465508412E-13
      6.43914238658057E-17
      1.00000000000000E+04
      8.00000000000000E-01   0.00000000000000E+00  -2.67717475994513E+00   1.51920465508412E-13   1.44922275836749E-15
     -4.28835353233540E-15  -1.39422187538876E-15  -1.49485352643141E-15  -5.50008829790628E-17  -3.40450669534317E-15
     -1.39422189044990E-15  -2.12688651711777E-12   1.40103206815624E-15   3.09610966887257E-16  -6.81017770208597E-18
     -2.37866495008348E-15  -5.50008679179292E-17   1.19341598457756E-15  -6.81019276321932E-18  -3.03840931016824E-13
      6.18110606804607E-17
      1.00000000000000E+04
      8.00000000000000E-01   0.00000000000000E+00  -3.17717475994513E+00   3.03840931016824E-13   1.41078816484920E-15
     -4.53910698849662E-15  -1.36217100006097E-15  -1.25744747156863E-15  -4.86171647885553E-17  -3.06328013057885E-15
     -1.36217101973060E-15   1.21536372406729E-12   1.37365577167151E-15   2.54034268959151E-16  -1.14847519376332E-17
     -2.73431419033622E-15  -4.86171451189307E-17   1.73090396132555E-15  -1.14847716072589E-17  -1.51920465508412E-13
      6.01019167261667E-17
      1.00000000000000E+04
      8.00000000000000E-01   0.00000000000000E+00  -3.67717475994513E+00   0.00000000000000E+00   1.36943852800052E-15
     -4.55461786194664E-15  -1.32653799784641E-15  -9.65485165453276E-16  -4.29005301546224E-17  -2.75406331966568E-15
     -1.32653801860323E-15   4.55761396525235E-13   1.34262914187082E-15   2.08943071589166E-16  -1.60911232642597E-17
     -2.76584854271258E-15  -4.29005093977973E-17   2.00930152381294E-15  -1.60911440210842E-17   1.51920465508412E-13
      5.89916534182079E-17
      1.00000000000000E+04
      8.00000000000000E-01   0.00000000000000E+00  -4.17717475994513E+00   0.00000000000000E+00   1.33521930210413E-15
     -4.40647654186336E-15  -1.29663086587134E-15  -7.44358586436663E-16  -3.85884362330735E-17  -2.62084374813545E-15
     -1.29663088443664E-15   1.21536372406729E-12   1.31632610800260E-15   1.85852176460779E-16  -1.96952235628454E-17
     -2.53027719632242E-15  -3.85884176677736E-17   1.97177485400775E-15  -1.96952421281452E-17  -1.51920465508412E-13
      5.82836597959840E-17
      1.00000000000000E+04
      8.00000000000000E-01   0.00000000000000E+00  -4.67717475994513E+00   1.51920465508412E-13   1.30922150708147E-15
     -3.97549822989656E-15  -1.27376122494451E-15  -5.69196658520285E-16  -3.54602821373726E-17  -2.47892422400585E-15
     -1.27376123944801E-15   9.11522793050471E-13   1.29611100734154E-15   1.65504765867344E-16  -2.23497678899686E-17
     -2.06389333195803E-15  -3.54602676338958E-17   1.66021647096875E-15  -2.23497823934468E-17   4.55761396525235E-13
      5.78100500269029E-17
      1.00000000000000E+04
      8.00000000000000E-01   0.00000000000000E+00  -5.17717475994513E+00   3.03840931016824E-13   1.28865339736135E-15
     -3.21988932928396E-15  -1.25560641127295E-15  -4.21449530646125E-16  -3.30469860888252E-17  -2.13780920558091E-15
     -1.25560642146027E-15   1.82304558610094E-12   1.28002045989069E-15   1.31136838076986E-16  -2.44140384261036E-17
     -1.50286146558101E-15  -3.30469759015000E-17   1.21255667482489E-15  -2.44140486134286E-17   3.03840931016824E-13
      5.74610245147463E-17
      1.00000000000000E+04
      8.00000000000000E-01   0.00000000000000E+00  -5.67717475994513E+00  -1.51920465508412E-13   1.27124453122163E-15
     -2.48941197224250E-15  -1.24020732852891E-15  -3.10944038046350E-16  -3.10372026932378E-17  -1.75744291655761E-15
     -1.24020733556417E-15  -1.06344325855888E-12   1.26634989490072E-15   9.65794295650726E-17  -2.61425593330389E-17
     -1.04318663275883E-15  -3.10371956579802E-17   8.28829542109500E-16  -2.61425663682965E-17   0.00000000000000E+00
      5.71797620264697E-17
      1.00000000000000E+04
      8.00000000000000E-01   0.00000000000000E+00  -6.17717475994513E+00   1.51920465508412E-13   1.25570810991732E-15
     -1.99072067178138E-15  -1.22644294963195E-15  -2.40802808088868E-16  -2.92651602858395E-17  -1.48082432965878E-15
     -1.22644295483475E-15  -3.03840931016824E-13   1.25411631220211E-15   7.26015873685801E-17  -2.76733573637298E-17
     -7.51319818012439E-16  -2.92651550830436E-17   5.83123347245415E-16  -2.76733625665256E-17  -6.07681862033647E-13
      5.69385176493774E-17
      1.00000000000000E+04
      8.00000000000000E-01   0.00000000000000E+00  -6.67717475994513E+00  -1.51920465508412E-13   1.24133937456317E-15
     -1.67463608676549E-15  -1.21369648195684E-15  -1.96646867687448E-16  -2.76428926067251E-17  -1.29464213598164E-15
     -1.21369648611896E-15  -1.36728418957571E-12   1.24277676338351E-15   5.68244184741697E-17  -2.90802772615037E-17
     -5.76133403926696E-16  -2.76428884446092E-17   4.36309419038675E-16  -2.90802814236196E-17   4.55761396525235E-13
      5.67231698682796E-17
      1.00000000000000E+04
      8.00000000000000E-01   0.00000000000000E+00  -7.17717475994513E+00   3.03840931016824E-13   1.22772309433728E-15
     -1.46219231893573E-15  -1.20160282868928E-15  -1.66227632121263E-16  -2.61202656485077E-17  -1.16201368932718E-15
     -1.20160283221361E-15   3.19032977567665E-12   1.23200853259729E-15   4.55133114582522E-17  -3.04057003808162E-17
     -4.66240994905333E-16  -2.61202621241645E-17   3.45512891482871E-16  -3.04057039051583E-17   1.51920465508412E-13
      5.65259660289784E-17
      1.00000000000000E+04
      8.00000000000000E-01   0.00000000000000E+00  -7.67717475994513E+00   3.03840931016824E-13   1.21458478845064E-15
     -1.31003272667313E-15  -1.18991888902012E-15  -1.43039110461472E-16  -2.46658994309701E-17  -1.06001583363046E-15
     -1.18991889211844E-15   4.55761396525235E-13   1.22159530307946E-15   3.65551314778991E-17  -3.16764109576782E-17
     -3.93083064004550E-16  -2.46658963326471E-17   2.86596011458115E-16  -3.16764140560008E-17  -1.51920465508412E-13
      5.63423103880912E-17
      1.00000000000000E+04
      8.00000000000000E-01   0.00000000000000E+00  -8.17717475994513E+00   3.03840931016824E-13   1.20171682029339E-15
     -1.19409247870036E-15  -1.17845876117837E-15  -1.24220936001198E-16  -2.32580591154429E-17  -9.76050702732567E-16
     -1.17845876397234E-15   2.27880698262618E-12   1.21136999029433E-15   2.89240182591448E-17  -3.29112263188693E-17
     -3.42563248073403E-16  -2.32580563214865E-17   2.47275072534282E-16  -3.29112291128257E-17  -1.51920465508412E-13
      5.61692854328572E-17
      1.00000000000000E+04
      8.00000000000000E-01   0.00000000000000E+00  -8.67717475994513E+00   3.03840931016824E-13   1.18893715772946E-15
     -1.10084777393207E-15  -1.16705732595856E-15  -1.08427345167114E-16  -2.18798317711955E-17  -9.03463469235421E-16
     -1.16705732852168E-15   1.06344325855888E-12   1.20118239424494E-15   2.20882052675501E-17  -3.41250657196012E-17
     -3.06287423011118E-16  -2.18798292080851E-17   2.19938609140297E-16  -3.41250682827118E-17  -1.51920465508412E-13
      5.60048974908944E-17
      1.00000000000000E+04
      8.00000000000000E-01   0.00000000000000E+00  -9.17717475994513E+00  -3.03840931016824E-13   1.17606092983361E-15
     -1.02356975808096E-15  -1.15554481980242E-15  -9.49124668459379E-17  -2.05161100314534E-17  -8.38956665869941E-16
     -1.15554482218033E-15   4.55761396525235E-13   1.19087635057221E-15   1.57278772665188E-17  -3.53315283889662E-17
     -2.78703274064589E-16  -2.05161076535499E-17   1.99503100818329E-16  -3.53315307668699E-17   3.03840931016824E-13
      5.58476384199475E-17
      1.00000000000000E+04
      8.00000000000000E-01   0.00000000000000E+00  -9.67717475994513E+00   3.03840931016824E-13   1.16287614021102E-15
     -9.54534976882218E-16  -1.14372473011520E-15  -8.34407618268912E-17  -1.91514100961803E-17  -7.80086627508663E-16
     -1.14372473233929E-15   1.82304558610094E-12   1.18026953298330E-15   9.52493485854083E-18  -3.65448006414093E-17
     -2.57565944154134E-16  -1.91514078720955E-17   1.83645742863017E-16  -3.65448028654941E-17  -3.03840931016824E-13
      5.56962107372886E-17
      1.00000000000000E+04
      8.00000000000000E-01   0.00000000000000E+00  -1.01771747599451E+01   3.03840931016824E-13   1.14912109921311E-15
     -8.93667456333056E-16  -1.13135280968220E-15  -7.40000655510478E-17  -1.77682895312947E-17  -7.25200095337864E-16
     -1.13135281177571E-15  -1.51920465508412E-13   1.16913389227702E-15   2.79791829655453E-18  -3.77810804991265E-17
     -2.42396344438973E-16  -1.77682874377798E-17   1.71174384673570E-16  -3.77810825926416E-17   1.51920465508412E-13
      5.55493700297725E-17
      1.00000000000000E+04
      8.00000000000000E-01   0.00000000000000E+00  -1.06771747599451E+01   1.51920465508412E-13   1.13446837649703E-15
     -8.39014915279217E-16  -1.11812159703124E-15  -6.61469521037116E-17  -1.63467794662349E-17  -6.76440206780657E-16
     -1.11812159900028E-15   1.21536372406729E-12   1.15718072180662E-15  -6.54122122564588E-18  -3.90591228024847E-17
     -2.28920368004880E-16  -1.63467774971854E-17   1.56215033985204E-16  -3.90591247715340E-17  -3.03840931016824E-13
      5.54059022685538E-17
      1.00000000000000E+04
      8.00000000000000E-01   0.00000000000000E+00  -1.11771747599451E+01   3.03840931016824E-13   1.11853674150650E-15
     -7.86384214917286E-16  -1.10367026105404E-15  -5.92154269177364E-17  -1.48664804527045E-17  -6.39987776027393E-16
     -1.10367026286899E-15   1.97496605160935E-12   1.14406862641949E-15  -2.55792997039992E-17  -4.03983635468046E-17
     -2.05778734970158E-16  -1.48664786377554E-17   1.20985326330933E-16  -4.03983653617542E-17   1.51920465508412E-13
      5.52648439991922E-17
      1.00000000000000E+04
      8.00000000000000E-01   0.00000000000000E+00  -1.16771747599451E+01  -1.51920465508412E-13   1.10099000203762E-15
     -7.35145059525352E-16  -1.08767460975996E-15  -5.28737785298625E-17  -1.33153922779456E-17  -6.41345974449514E-16
     -1.08767461131427E-15  -1.06344325855888E-12   1.12948542046603E-15  -7.83556185780603E-17  -4.18108091484529E-17
     -1.46149469905458E-16  -1.33153907236410E-17   1.49143595300393E-17  -4.18108107027574E-17   4.55761396525235E-13
      5.51262014262690E-17
      1.00000000000000E+04
      8.00000000000000E-01   0.00000000000000E+00  -1.21771747599451E+01   3.03840931016824E-13   1.08182882846723E-15
     -6.82569503307836E-16  -1.07011720203542E-15  -4.69592510337974E-17  -1.17116264320415E-17  -7.55057500568703E-16
     -1.07011720302805E-15  -7.59602327542059E-13   1.11339804827161E-15  -2.46026471579086E-16  -4.32808452402460E-17
      2.55724116949391E-17  -1.17116254394143E-17  -3.18574529836093E-16  -4.32808462328734E-17   0.00000000000000E+00
      5.49924716710110E-17
      1.00000000000000E+04
      8.00000000000000E-01   0.00000000000000E+00  -1.26771747599451E+01  -3.03840931016824E-13   1.06189896961007E-15
     -6.32496897427956E-16  -1.05176360990159E-15  -4.14406426523657E-17  -1.01353597087901E-17  -1.19593034789141E-15
     -1.05176360953563E-15   7.59602327542059E-13   1.09649870969247E-15  -7.99713618536615E-16  -4.47351001543097E-17
      5.22147472904478E-16  -1.01353600747408E-17  -1.36329591900369E-15  -4.47350997883588E-17  -3.03840931016824E-13
      5.48704598627630E-17
      1.00000000000000E+04
      8.00000000000000E-01   0.00000000000000E+00  -1.31771747599451E+01   1.51920465508412E-13   1.04314273076749E-15
     -5.86820900653961E-16  -1.03440962351540E-15  -3.63706136029306E-17  -8.73310725243128E-18  -2.55883949062600E-15
     -1.03440961971517E-15   7.59602327542059E-13   1.08044701697989E-15  -2.61795884780313E-15  -4.60373972623547E-17
      1.93587969208510E-15  -8.73311105266727E-18  -4.59021036437291E-15  -4.60373934621187E-17   1.51920465508412E-13
      5.47705045147147E-17
      1.00000000000000E+04
      8.00000000000000E-01   0.00000000000000E+00  -1.36771747599451E+01   1.51920465508412E-13   1.02772858190451E-15
     -5.48975636279729E-16  -1.02008617009036E-15  -3.16649956951365E-17  -7.64241181440351E-18  -6.53067512589277E-15
     -1.02008615729045E-15   7.59602327542059E-13   1.06714407658193E-15  -8.44922176170050E-15  -4.70579192890693E-17
      5.95107029114431E-15  -7.64242461430977E-18  -1.44319703468789E-14  -4.70579064891632E-17   0.00000000000000E+00
      5.47003311032550E-17
      1.00000000000000E+04
      8.00000000000000E-01   0.00000000000000E+00  -1.41771747599451E+01   1.51920465508412E-13   1.01657746593952E-15
     -5.13626830011310E-16  -1.00968276254990E-15  -2.69512573306220E-17  -6.89470338994543E-18  -1.79623691694283E-14
     -1.00968272533986E-15   7.59602327542059E-13   1.05744707789721E-15  -2.65677888365417E-14  -4.77643525531703E-17
      1.74219053313245E-14  -6.89474059999134E-18  -4.40166526544418E-14  -4.77643153431244E-17   1.51920465508412E-13
      5.46590559430584E-17
      1.00000000000000E+04
      8.00000000000000E-01   0.00000000000000E+00  -1.46771747599451E+01   3.03840931016824E-13   1.00912216019693E-15
     -4.81179601484660E-16  -1.00270206955741E-15  -2.16420830186445E-17  -6.42009063975378E-18  -5.06177556506640E-14
     -1.00270196517962E-15   4.55761396525235E-13   1.05092111096591E-15  -8.09122460655156E-14  -4.82191457839820E-17
      5.01149114909514E-14  -6.42019501754165E-18  -1.31048836248943E-13  -4.82190414061944E-17   0.00000000000000E+00
      5.46392364232005E-17
      1.00000000000000E+04
      8.00000000000000E-01   0.00000000000000E+00  -1.51771747599451E+01  -3.03840931016824E-13   1.00423237897316E-15
     -4.49235380022280E-16  -9.98109293867248E-16  -1.49033035043598E-17  -6.12308510626735E-18  -1.42265989690037E-13
     -9.98109006261155E-16  -7.59602327542059E-13   1.04661873452101E-15  -2.37972418217718E-13  -4.85097282564008E-17
      1.41800933530251E-13  -6.12337271236146E-18  -3.79788262718112E-13  -4.85094406503067E-17   1.51920465508412E-13
      5.46328133618056E-17
      1.00000000000000E+04
      8.00000000000000E-01   0.00000000000000E+00  -1.56771747599451E+01   0.00000000000000E+00   1.00093869844602E-15
     -4.22319502123484E-16  -9.95008473095652E-16  -5.23780962710750E-18  -5.93022535061055E-18  -3.92616119264492E-13
     -9.95007697257611E-16   3.34225024118506E-12   1.04371145534260E-15  -6.74797110898368E-13  -4.87037580820418E-17
      3.92190001730829E-13  -5.93100118865275E-18  -1.06699236869062E-12  -4.87029822439997E-17   7.59602327542059E-13
      5.46339834324035E-17
      1.00000000000000E+04
      8.00000000000000E-01   0.00000000000000E+00  -1.61771747599451E+01   3.03840931016824E-13   9.98603980807220E-16
     -4.01339198048290E-16  -9.92807707457413E-16   1.05605100938393E-17  -5.79627335010682E-18  -1.05422567753252E-12
     -9.92805671004125E-16   3.49417070669347E-12   1.04164830229681E-15  -1.84256185517745E-12  -4.88426312894774E-17
      1.05383523181395E-12  -5.79830980339758E-18  -2.89638654209199E-12  -4.88405948361866E-17   1.21536372406729E-12
      5.46389046385316E-17
      1.00000000000000E+04
      8.00000000000000E-01   0.00000000000000E+00  -1.66771747599451E+01  -4.55761396525235E-13   9.96851033676745E-16
     -4.03245377226298E-16  -9.91155361649867E-16   3.96518904308689E-17  -5.69567202709002E-18  -2.73909952556413E-12
     -9.91150185905032E-16   9.26714839601312E-12   1.04009879105647E-15  -4.83909608434374E-12  -4.89486051484830E-17
      2.73873558864670E-12  -5.70084777192319E-18  -7.57779201919266E-12  -4.89434294036500E-17   5.01337536177759E-12
      5.46442771749007E-17
      1.00000000000000E+04
      8.00000000000000E-01   0.00000000000000E+00  -1.71771747599451E+01   3.03840931016824E-13   9.95463225388596E-16
     -4.53946401009714E-16  -9.89849104348436E-16   9.73101141698728E-17  -5.61412104046188E-18  -6.86119037119845E-12
     -9.89836414485801E-16   1.97496605160935E-11   1.03886777708628E-15  -1.22073212294673E-11  -4.90313625970273E-17
      6.86083327949919E-12  -5.62681090309762E-18  -1.90680571921322E-11  -4.90186727343916E-17   1.32170804992318E-11
      5.46454836375026E-17
      1.00000000000000E+04
      8.00000000000000E-01   0.00000000000000E+00  -1.76771747599451E+01  -1.51920465508412E-13   9.94315412792600E-16
     -6.01229474403422E-16  -9.88772246133078E-16   2.12944441594722E-16  -5.54316665983092E-18  -1.65207465563463E-11
     -9.88742326928263E-16   4.48165373249815E-11   1.03783306978102E-15  -2.95296263279486E-11  -4.90907428493858E-17
      1.65203588088505E-11  -5.57308586464528E-18  -4.60497721836705E-11  -4.90608236445714E-17   2.99283317051571E-11
      5.46339095086695E-17
      1.00000000000000E+04
      8.00000000000000E-01   0.00000000000000E+00  -1.81771747599451E+01   0.00000000000000E+00   9.93333804753805E-16
     -9.18887241930227E-16  -9.87856754253344E-16   4.33487356822851E-16  -5.47705050065414E-18  -3.81256942796297E-11
     -9.87789142998917E-16   1.06800087252413E-10   1.03690480650382E-15  -6.83425037669343E-11  -4.91156635018563E-17
      3.81252090400489E-11  -5.54466175508306E-18  -1.06467279322687E-10  -4.90480522474273E-17   6.83642094787853E-11
      5.45927140025252E-17
      1.00000000000000E+04
      8.00000000000000E-01   0.00000000000000E+00  -1.86771747599451E+01   3.03840931016824E-13   9.92474072466369E-16
     -1.48706825489282E-15  -9.87063272238412E-16   8.07222549517539E-16  -5.41080022821528E-18  -8.40321847433385E-11
     -9.86917420131767E-16   2.36540164796597E-10   1.03599720903695E-15  -1.50852884824797E-10  -4.90797889028317E-17
      8.40315055234577E-11  -5.55665233486151E-18  -2.34883583119929E-10  -4.89339367961853E-17   1.50553181318836E-10
      5.44905891300287E-17
      1.00000000000000E+04
      8.00000000000000E-01   0.00000000000000E+00  -1.91771747599451E+01   0.00000000000000E+00   9.91709637071675E-16
     -2.29170171565432E-15  -9.86370649484130E-16   1.32259799205145E-15  -5.33898758786459E-18  -1.76105346375456E-10
     -9.86071879809095E-16   4.91462705919712E-10   1.03500741170426E-15  -3.16207625675190E-10  -4.89355318924274E-17
      1.76104377667930E-10  -5.63775726289909E-18  -4.92310680727830E-10  -4.86367622173929E-17   3.16146488723005E-10
      5.42745194795915E-17
      1.00000000000000E+04
      8.00000000000000E-01   0.00000000000000E+00  -1.96771747599451E+01  -3.03840931016824E-13   9.91025284481541E-16
     -3.11767310474397E-15  -9.85770203613663E-16   1.83639529272209E-15  -5.25508086808575E-18  -3.48938216053543E-10
     -9.85192987483074E-16   9.75481309029512E-10   1.03380410468389E-15  -6.25907723218969E-10  -4.86111171974310E-17
      3.48936934677343E-10  -5.83229699867444E-18  -9.74842821516529E-10  -4.80339010668416E-17   6.25912317894657E-10
      5.38661980656976E-17
      1.00000000000000E+04
      8.00000000000000E-01   0.00000000000000E+00  -2.01771747599451E+01  -4.55761396525235E-13   9.90413220603017E-16
     -3.64845908979894E-15  -9.85261456003121E-16   2.14132688560311E-15  -5.15176460024547E-18  -6.49464138704722E-10
     -9.84217984279782E-16   1.81165155118781E-09   1.03223805643211E-15  -1.16233543274022E-09  -4.80200721491187E-17
      6.49462632375438E-10  -6.19523632358739E-18  -1.81179592378562E-09  -4.69766004257762E-17   1.16188772020833E-09
      5.31718367488999E-17
      1.00000000000000E+04
      8.00000000000000E-01   0.00000000000000E+00  -2.06771747599451E+01  -3.03840931016824E-13   9.89869808770766E-16
     -3.75650700501345E-15  -9.84847124265208E-16   2.16306651943739E-15  -5.02268450589738E-18  -1.12852775407985E-09
     -9.83095327291506E-16   3.14004410159336E-09   1.03018758742402E-15  -2.01247759246446E-09  -4.70922601287433E-17
      1.12852616132754E-09  -6.77448147959795E-18  -3.14100159072261E-09  -4.53404631550414E-17   2.01294616798646E-09
      5.21149446345986E-17
      1.00000000000000E+04
      8.00000000000000E-01   0.00000000000000E+00  -2.11771747599451E+01  -4.55761396525235E-13   9.89392308493011E-16
     -3.55395534946224E-15  -9.84527036333560E-16   1.98621603971039E-15  -4.86527215976788E-18  -1.82355081199903E-09
     -9.81808720956671E-16   5.06062262655071E-09   1.02762836505573E-15  -3.23594861582588E-09  -4.58196440965756E-17
      1.82354924392348E-09  -7.58358753665429E-18  -5.05949587353251E-09  -4.31013287196879E-17   3.23605783579468E-09
      5.06849162569252E-17
      1.00000000000000E+04
      8.00000000000000E-01   0.00000000000000E+00  -2.16771747599451E+01  -1.51920465508412E-13   9.88976204630046E-16
     -3.20231277301999E-15  -9.84293339538356E-16   1.72302415643897E-15  -4.68286509203122E-18  -2.74064479772132E-09
     -9.80392827468648E-16   7.57156408047374E-09   1.02467670469887E-15  -4.83346218085564E-09  -4.42838772264682E-17
      2.74064331902590E-09  -8.58337716173798E-18  -7.57410377685182E-09  -4.03833651567625E-17   4.83274192828809E-09
      4.89667423177638E-17
      1.00000000000000E+04
      8.00000000000000E-01   0.00000000000000E+00  -2.21771747599451E+01  -1.51920465508412E-13   9.88614272466184E-16
     -2.83041319062500E-15  -9.84130143505145E-16   1.45738442417491E-15  -4.48412896133201E-18  -3.84969507827494E-09
     -9.78922480962929E-16   1.05908314119879E-08   1.02155638046667E-15  -6.74047336273824E-09  -4.26338994999922E-17
      3.84969370617439E-09  -9.69179150354809E-18  -1.05901656115210E-08  -3.74262369577765E-17   6.74071105460823E-09
      4.71180284614480E-17
      1.00000000000000E+04
      8.00000000000000E-01   0.00000000000000E+00  -2.26771747599451E+01   1.51920465508412E-13   9.88297555428941E-16
     -2.52042982125913E-15  -9.84017625776944E-16   1.23686972209047E-15  -4.27992965245688E-18  -5.09666083724300E-09
     -9.77480821289136E-16   1.39484256201893E-08   1.01850708113732E-15  -8.85231677995579E-09  -4.10262598450354E-17
      5.09665955290983E-09  -1.08167341402609E-17  -1.39489750959836E-08  -3.44894553572358E-17   8.85255744564066E-09
      4.53061894971886E-17
      1.00000000000000E+04
      8.00000000000000E-01   0.00000000000000E+00  -2.31771747599451E+01   3.03840931016824E-13   9.88017096530238E-16
     -2.29422434053939E-15  -9.83937168705702E-16   1.06989256539644E-15  -4.07992782490492E-18  -6.42296287474728E-09
     -9.76130786490810E-16   1.74823994888460E-08   1.01570511431773E-15  -1.10607387882869E-08  -3.95743278237707E-17
      6.42296165125797E-09  -1.18863100397943E-17  -1.74836993696304E-08  -3.17679456088862E-17   1.10607214118054E-08
      4.36542556482915E-17
      1.00000000000000E+04
      8.00000000000000E-01   0.00000000000000E+00  -2.36771747599451E+01  -1.51920465508412E-13   9.87765192338030E-16
     -2.12510304321636E-15  -9.83874424098984E-16   9.42382060035026E-16  -3.89076823942345E-18  -7.77962369628040E-09
     -9.74905221323789E-16   2.10601264515691E-08   1.01323839328764E-15  -1.32790499111977E-08  -3.83331719598423E-17
      7.77962251463962E-09  -1.28599710146207E-17  -2.10586714834637E-08  -2.93639691846377E-17   1.32787602082282E-08
      4.22239401989975E-17
      1.00000000000000E+04
      8.00000000000000E-01   0.00000000000000E+00  -2.41771747599451E+01  -1.51920465508412E-13   9.87535812104479E-16
     -1.98151649854701E-15  -9.83819834581225E-16   8.37807728961531E-16  -3.71597752367876E-18  -9.13226267952297E-09
     -9.73811970878562E-16   2.45840735695022E-08   1.01112354441090E-15  -1.54496972057839E-08  -3.73115735301017E-17
      9.13226153624292E-09  -1.37238412263404E-17  -2.45819579042239E-08  -2.73037098274351E-17   1.54500075012745E-08
      4.10275510533853E-17
      1.00000000000000E+04
      8.00000000000000E-01   0.00000000000000E+00  -2.46771747599451E+01   4.55761396525235E-13   9.87324459017387E-16
     -1.84649189192100E-15  -9.83767730184851E-16   7.45883756274628E-16  -3.55672883288238E-18  -1.04598538583560E-08
     -9.72843777080985E-16   2.79981821908728E-08   1.00933544162925E-15  -1.75405115605706E-08  -3.64916645450197E-17
      1.04598527579398E-08  -1.44806819367427E-17  -2.80003635726060E-08  -2.55677114411587E-17   1.75402811862047E-08
      4.00483933768803E-17
      1.00000000000000E+04
      8.00000000000000E-01   0.00000000000000E+00  -2.51771747599451E+01   0.00000000000000E+00   9.87127831567676E-16
     -1.71353100883164E-15  -9.83715096098952E-16   6.62426985172347E-16  -3.41273546904741E-18  -1.17512099687709E-08
     -9.71986603413342E-16   3.12857410644748E-08   1.00783125936728E-15  -1.95372820564458E-08  -3.58446559495877E-17
      1.17512089182075E-08  -1.51412281546623E-17  -3.12884903122533E-08  -2.41161632639551E-17   1.95372757053128E-08
      3.92573914190249E-17
      1.00000000000000E+04
      8.00000000000000E-01   0.00000000000000E+00  -2.56771747599451E+01   3.03840931016824E-13   9.86943490001453E-16
     -1.58260619049330E-15  -9.83660543024918E-16   5.86567467960484E-16  -3.28294697690039E-18  -1.30015272641432E-08
     -9.71224771482834E-16   3.44394580079639E-08   1.00656492436679E-15  -2.14369196367962E-08  -3.53401528799261E-17
      1.30015262685557E-08  -1.57187185189805E-17  -3.44384453187860E-08  -2.29043813378333E-17   2.14367372855644E-08
      3.86230998563237E-17
      1.00000000000000E+04
      8.00000000000000E-01   0.00000000000000E+00  -2.61771747599451E+01   3.03840931016824E-13   9.86769596632298E-16
     -1.45873216282233E-15  -9.83603598877668E-16   5.18475171666818E-16  -3.16599775495705E-18  -1.42097858537353E-08
     -9.70543519411165E-16   3.74526485208577E-08   1.00549405628590E-15  -2.32425112828214E-08  -3.49505368716890E-17
      1.42097849145755E-08  -1.62260772214583E-17  -3.74522956789267E-08  -2.18904574051764E-17   2.32424639385974E-08
      3.81165346266743E-17
      1.00000000000000E+04