DF-ISE text

Info {
  version   = 1.0
  type      = xyplot
  datasets  = [
    "frequency"
    "v(Ntop)" "v(Ptop)" "v(Pbot)" "a(Ntop,Ntop)" "c(Ntop,Ntop)"
    "a(Ntop,Ptop)" "c(Ntop,Ptop)" "a(Ntop,Pbot)" "c(Ntop,Pbot)" "a(Ptop,Ntop)"
    "c(Ptop,Ntop)" "a(Ptop,Ptop)" "c(Ptop,Ptop)" "a(Ptop,Pbot)" "c(Ptop,Pbot)"
    "a(Pbot,Ntop)" "c(Pbot,Ntop)" "a(Pbot,Ptop)" "c(Pbot,Ptop)" "a(Pbot,Pbot)"
    "c(Pbot,Pbot)" ]
  functions = [
    Frequency
    Voltage Voltage Voltage Admittance Capacitance
    Admittance Capacitance Admittance Capacitance Admittance
    Capacitance Admittance Capacitance Admittance Capacitance
    Admittance Capacitance Admittance Capacitance Admittance
    Capacitance ]
}

Data {
      1.00000000000000E+04
      8.00000000000000E-01   0.00000000000000E+00  -5.00000000000000E-02  -6.07681862033647E-13   1.28898520382615E-15
     -2.61758350070922E-15  -1.18380097018929E-15  -4.25559698979745E-15  -1.05184233636999E-16  -2.63118143190611E-15
     -1.18380097173163E-15   2.73456837915141E-12   1.18381461286148E-15   3.05762236738630E-16  -1.36411274482635E-20
     -4.24156511447186E-15  -1.05184232094656E-16   2.91722539127830E-16  -1.36426697852860E-20  -1.51920465508412E-13
      1.05197874763996E-16
      1.00000000000000E+04
      8.00000000000000E-01   0.00000000000000E+00  -1.45555555555556E-01  -3.03840931016824E-13   1.28484027605764E-15
     -2.60574327857077E-15  -1.18378621007628E-15  -4.00973771835134E-15  -1.01054065981541E-16  -2.61836058438183E-15
     -1.18378621186143E-15  -7.59602327542059E-13   1.18380525918305E-15   2.94132070960761E-16  -1.90473192876520E-20
     -3.99694949833713E-15  -1.01054064196384E-16   2.81342034061287E-16  -1.90491044430304E-20   3.03840931016824E-13
      1.01073113300864E-16
      1.00000000000000E+04
      8.00000000000000E-01   0.00000000000000E+00  -3.28172839506173E-01   1.51920465508412E-13   1.27810691344452E-15
     -2.58850027575059E-15  -1.18374128236091E-15  -3.62642883775102E-15  -9.43656310837545E-17  -2.59834511174290E-15
     -1.18374128454893E-15   3.03840931016824E-13   1.18377624416906E-15   2.75440543173343E-16  -3.49596194853398E-20
     -3.61688506153691E-15  -9.43656288957293E-17   2.65895618658803E-16  -3.49618075089440E-20  -6.07681862033647E-13
      9.44005907033098E-17
      1.00000000000000E+04
      8.00000000000000E-01   0.00000000000000E+00  -6.77174759945130E-01  -3.03840931016824E-13   1.26814468030867E-15
     -2.57146574021958E-15  -1.18354122628118E-15  -3.11487686733460E-15  -8.46034540276336E-17  -2.57055150553638E-15
     -1.18354122909555E-15   7.59602327542059E-13   1.18364281269407E-15   2.48729849228019E-16  -1.01583597149424E-19
     -3.11675847815505E-15  -8.46034512132815E-17   2.50620355917447E-16  -1.01586411508952E-19  -1.51920465508412E-13
      8.47050376246347E-17
      1.00000000000000E+04
      8.00000000000000E-01   0.00000000000000E+00  -1.17717475994513E+00   1.51920465508412E-13   1.25724257345380E-15
     -2.60024785362058E-15  -1.18257823954782E-15  -2.61299365812220E-15  -7.46643339061224E-17  -2.55354763676239E-15
     -1.18257824324249E-15   1.67112512059253E-12   1.18297109970211E-15   2.23004016742471E-16  -3.92856457280910E-19
     -2.65998404426669E-15  -7.46643302114592E-17   2.70000754516631E-16  -3.92860151946149E-19   1.51920465508412E-13
      7.50571903630928E-17
      1.00000000000000E+04
      8.00000000000000E-01   0.00000000000000E+00  -1.67717475994513E+00   0.00000000000000E+00   1.24662878129071E-15
     -2.73533723935662E-15  -1.17935630403099E-15  -2.21185576555747E-15  -6.72724772598763E-17  -2.55974566185748E-15
     -1.17935630918589E-15   7.59602327542059E-13   1.18059728443463E-15   2.05108274567761E-16  -1.24097524733294E-18
     -2.38697941461392E-15  -6.72724721049816E-17   3.80233144757860E-16  -1.24098040222792E-18   0.00000000000000E+00
      6.85134525071232E-17
      1.00000000000000E+04
      8.00000000000000E-01   0.00000000000000E+00  -2.17717475994513E+00  -3.03840931016824E-13   1.23201488504122E-15
     -2.99799406289920E-15  -1.17069110509524E-15  -1.75602685736405E-15  -6.13237799461976E-17  -2.56678359313521E-15
     -1.17069111271776E-15   1.51920465508412E-13   1.17380046475647E-15   1.89854415100059E-16  -3.10935203613044E-18
     -2.18778079044228E-15  -6.13237723236901E-17   6.21612263293739E-16  -3.10935965863947E-18   3.03840931016824E-13
      6.44331319821898E-17
      1.00000000000000E+04
      8.00000000000000E-01   0.00000000000000E+00  -2.67717475994513E+00  -3.03840931016824E-13   1.20775478360667E-15
     -3.33084713207413E-15  -1.15223249284935E-15  -1.32880961005148E-15  -5.55222907575041E-17  -2.51031167628714E-15
     -1.15223250385904E-15   3.34225024118506E-12   1.15859142653871E-15   1.68524112653005E-16  -6.35892267753348E-18
     -2.15004566032126E-15  -5.55222797478107E-17   9.89769359685046E-16  -6.35893368722705E-18  -4.55761396525235E-13
      6.18812134345647E-17
      1.00000000000000E+04
      8.00000000000000E-01   0.00000000000000E+00  -3.17717475994513E+00  -6.07681862033647E-13   1.17232449298475E-15
     -3.73338650730586E-15  -1.12283796426926E-15  -1.12161783062874E-15  -4.94865287155873E-17  -2.36025066896545E-15
     -1.12283797935726E-15   3.79801163771029E-12   1.13355085610395E-15   1.39358953503210E-16  -1.07128767445638E-17
     -2.49443400988873E-15  -4.94865136275929E-17   1.51216754702321E-15  -1.07128918325586E-17   4.55761396525235E-13
      6.01994054599099E-17
      1.00000000000000E+04
      8.00000000000000E-01   0.00000000000000E+00  -3.67717475994513E+00  -3.03840931016824E-13   1.13397056300697E-15
     -3.92056469462868E-15  -1.08990708294202E-15  -8.56925814528378E-16  -4.40634800650493E-17  -2.23810508477061E-15
     -1.08990709918193E-15  -1.51920465508412E-13   1.10494924445452E-15   1.16814501172805E-16  -1.50421452708395E-17
     -2.53922226700972E-15  -4.40634638251342E-17   1.79910433395741E-15  -1.50421615107544E-17   3.03840931016824E-13
      5.91056253363531E-17
      1.00000000000000E+04
      8.00000000000000E-01   0.00000000000000E+00  -4.17717475994513E+00  -7.59602327542059E-13   1.10213318317926E-15
     -3.92923967923423E-15  -1.06218129123038E-15  -6.57780338756057E-16  -3.99518919489586E-17  -2.23977511847102E-15
     -1.06218130585092E-15  -4.55761396525235E-13   1.08063433588578E-15   1.09117977335255E-16  -1.84530300328580E-17
     -2.34763496895108E-15  -3.99518773284158E-17   1.79896839517810E-15  -1.84530446534009E-17   1.51920465508412E-13
      5.84049219817557E-17
      1.00000000000000E+04
      8.00000000000000E-01   0.00000000000000E+00  -4.67717475994513E+00  -7.59602327542059E-13   1.07823184249482E-15
     -3.65537604194780E-15  -1.04124570949918E-15  -4.99765790088946E-16  -3.69861329958033E-17  -2.21627514761763E-15
     -1.04124572082869E-15   3.03840931016824E-13   1.06219628533891E-15   1.01184658800757E-16  -2.09505645086171E-17
     -1.93892421729492E-15  -3.69861216662895E-17   1.54033636787108E-15  -2.09505758381309E-17   0.00000000000000E+00
      5.79366975045464E-17
      1.00000000000000E+04
      8.00000000000000E-01   0.00000000000000E+00  -5.17717475994513E+00  -6.07681862033647E-13   1.05976711290780E-15
     -3.04416963382315E-15  -1.02503430080900E-15  -3.65616180422036E-16  -3.47328120990243E-17  -1.98543074033351E-15
     -1.02503430847581E-15  -1.51920465508412E-13   1.04789571847541E-15   7.74355552138985E-17  -2.28614099978522E-17
     -1.42449992166159E-15  -3.47328044322088E-17   1.13631898226095E-15  -2.28614176646676E-17  -1.51920465508412E-13
      5.75942220975749E-17
      1.00000000000000E+04
      8.00000000000000E-01   0.00000000000000E+00  -5.67717475994513E+00  -1.21536372406729E-12   1.04456292574013E-15
     -2.39760585380683E-15  -1.01167205308756E-15  -2.62383089235835E-16  -3.28908726526835E-17  -1.67819484352772E-15
     -1.01167205796800E-15   1.06344325855888E-12   1.03610220463067E-15   4.96724319756157E-17  -2.44301466607765E-17
     -9.81804628694117E-16  -3.28908677722422E-17   7.69099164218945E-16  -2.44301515412176E-17   3.03840931016824E-13
      5.73210193130856E-17
      1.00000000000000E+04
      8.00000000000000E-01   0.00000000000000E+00  -6.17717475994513E+00  -6.07681862033647E-13   1.03135727171207E-15
     -1.94749384649294E-15  -1.00006038028432E-15  -1.96436053216584E-16  -3.12968914279074E-17  -1.45066209420221E-15
     -1.00006038352523E-15   7.59602327542059E-13   1.02585262178547E-15   3.03300231052122E-17  -2.57922382577111E-17
     -6.93144484759862E-16  -3.12968881869967E-17   5.27029634847637E-16  -2.57922414986218E-17   0.00000000000000E+00
      5.70891296848796E-17
      1.00000000000000E+04
      8.00000000000000E-01   0.00000000000000E+00  -6.67717475994513E+00  -3.03840931016824E-13   1.01945898002780E-15
     -1.66971460042892E-15  -9.89595068603551E-16  -1.55818327446345E-16  -2.98639114243703E-17  -1.30613671746641E-15
     -9.89595070930792E-16   1.36728418957571E-12   1.01661540955607E-15   1.85006171319978E-17  -2.70203386232336E-17
     -5.19235719154489E-16  -2.98639090971255E-17   3.81906216326068E-16  -2.70203409504782E-17   1.51920465508412E-13
      5.68842500477493E-17
      1.00000000000000E+04
      8.00000000000000E-01   0.00000000000000E+00  -7.17717475994513E+00  -3.03840931016824E-13   1.00847151834763E-15
     -1.49274696406289E-15  -9.79928443716801E-16  -1.28748205586858E-16  -2.85430746308918E-17  -1.21137134543203E-15
     -9.79928445503358E-16   1.82304558610094E-12   1.00808392247544E-15   1.08222807430292E-17  -2.81554769684343E-17
     -4.10805650658605E-16  -2.85430728443369E-17   2.92883560227797E-16  -2.81554787549891E-17  -6.07681862033647E-13
      5.66985515996540E-17
      1.00000000000000E+04
      8.00000000000000E-01   0.00000000000000E+00  -7.67717475994513E+00  -6.07681862033647E-13   9.98150094810346E-16
     -1.37444640046445E-15  -9.70845113193996E-16  -1.08717052095416E-16  -2.73049816164982E-17  -1.14447836749878E-15
     -9.70845114633155E-16   1.36728418957571E-12   1.00006758706400E-15   5.25848179590203E-18  -2.92224724281421E-17
     -3.38995434922188E-16  -2.73049801773388E-17   2.35533065674642E-16  -2.92224738673015E-17  -1.51920465508412E-13
      5.65274540439488E-17
      1.00000000000000E+04
      8.00000000000000E-01   0.00000000000000E+00  -8.17717475994513E+00  -7.59602327542059E-13   9.88332802188322E-16
     -1.28996657322160E-15  -9.62201905314061E-16  -9.28622209667793E-17  -2.61308968743667E-17  -1.09376980770833E-15
     -9.62201906514047E-16   4.55761396525235E-13   9.92439151558408E-16   8.22029952996748E-19  -3.02372450416760E-17
     -2.89304681490385E-16  -2.61308956743823E-17   1.97277563568800E-16  -3.02372462416604E-17  -1.51920465508412E-13
      5.63681419157048E-17
      1.00000000000000E+04
      8.00000000000000E-01   0.00000000000000E+00  -8.67717475994513E+00  -9.11522793050471E-13   9.78906343436058E-16
     -1.22706142002125E-15  -9.53897971859465E-16  -7.99921779844728E-17  -2.50083715767185E-17  -1.05334426946306E-15
     -9.53897972884982E-16   1.82304558610094E-12   9.85108428479515E-16  -2.97603078287577E-18  -3.12104555917178E-17
     -2.53848878835425E-16  -2.50083705512035E-17   1.70873471062234E-16  -3.12104566172329E-17   0.00000000000000E+00
      5.62188271689676E-17
      1.00000000000000E+04
      8.00000000000000E-01   0.00000000000000E+00  -9.17717475994513E+00  -7.59602327542059E-13   9.69787626538593E-16
     -1.17715778042312E-15  -9.45858769551462E-16  -6.93592755792049E-17  -2.39288569872691E-17  -1.01971209242978E-15
     -9.45858770441704E-16   1.21536372406729E-12   9.78008256416720E-16  -6.40068808630013E-18  -3.21494859728954E-17
     -2.26955013436563E-16  -2.39288560970265E-17   1.51210483717902E-16  -3.21494868631380E-17  -3.03840931016824E-13
      5.60783429592311E-17
      1.00000000000000E+04
      8.00000000000000E-01   0.00000000000000E+00  -9.67717475994513E+00  -1.21536372406729E-12   9.60913080321015E-16
     -1.13593927055071E-15  -9.38026784523694E-16  -6.06206946478407E-17  -2.28862957974909E-17  -9.91091297565401E-16
     -9.38026785303921E-16   1.06344325855888E-12   9.71086392016731E-16  -9.66750984184539E-18  -3.30596067110689E-17
     -2.05642957181687E-16  -2.28862950172635E-17   1.35358487687100E-16  -3.30596074912962E-17   0.00000000000000E+00
      5.59459025079267E-17
      1.00000000000000E+04
      8.00000000000000E-01   0.00000000000000E+00  -1.01771747599451E+01  -1.21536372406729E-12   9.52232200398164E-16
     -1.10177624668377E-15  -9.30355929864742E-16  -5.36434309868331E-17  -2.18762705335943E-17  -9.67231507252217E-16
     -9.30355930551655E-16  -1.21536372406729E-12   9.64300614733533E-16  -1.31906131035368E-17  -3.39446841791758E-17
     -1.88295533730540E-16  -2.18762698466852E-17   1.21462197302131E-16  -3.39446848660849E-17   4.55761396525235E-13
      5.58209547120727E-17
      1.00000000000000E+04
      8.00000000000000E-01   0.00000000000000E+00  -1.06771747599451E+01  -3.03840931016824E-13   9.43703752914980E-16
     -1.07333478426236E-15  -9.22808241529047E-16  -4.83699983114860E-17  -2.08955113860724E-17  -9.49263282515576E-16
     -9.22808242130100E-16  -9.11522793050471E-13   9.57615832946939E-16  -1.81976261462857E-17  -3.48075908138660E-17
     -1.72692322463011E-16  -2.08955107850187E-17   1.06105676996702E-16  -3.48075914149197E-17  -3.03840931016824E-13
      5.57031021996638E-17
      1.00000000000000E+04
      8.00000000000000E-01   0.00000000000000E+00  -1.11771747599451E+01   0.00000000000000E+00   9.35293840656090E-16
     -1.04809495061139E-15  -9.15352193785667E-16  -4.42889131565361E-17  -1.99416468704927E-17  -9.44164229767559E-16
     -9.15352194283121E-16  -6.07681862033647E-13   9.51002606650809E-16  -2.87641326206150E-17  -3.56504123646127E-17
     -1.49161403851864E-16  -1.99416463730384E-17   7.61197597602796E-17  -3.56504128620670E-17   0.00000000000000E+00
      5.55920592342453E-17
      1.00000000000000E+04
      8.00000000000000E-01   0.00000000000000E+00  -1.16771747599451E+01  -6.07681862033647E-13   9.26975396036700E-16
     -1.02745201624065E-15  -9.07962276895673E-16  -4.09480774916805E-17  -1.90131191410700E-17  -9.75627007117316E-16
     -9.07962277209535E-16  -3.03840931016824E-13   9.44436791510828E-16  -5.83390674345252E-17  -3.64745142999106E-17
     -9.21725048005839E-17  -1.90131188272108E-17  -7.11283935186725E-18  -3.64745146137696E-17   4.55761396525235E-13
      5.54876334412576E-17
      1.00000000000000E+04
      8.00000000000000E-01   0.00000000000000E+00  -1.21771747599451E+01  -9.11522793050471E-13   9.18728877301074E-16
     -1.00650758776588E-15  -9.00619664660639E-16  -3.81130705922905E-17  -1.81092126406143E-17  -1.11658998255675E-15
     -9.00619664537519E-16   1.36728418957571E-12   9.37900172598892E-16  -1.50375769009849E-16  -3.72805080594908E-17
      7.19849519959400E-17  -1.81092127637358E-17  -2.60484408924420E-16  -3.72805079363694E-17  -3.03840931016824E-13
      5.53897206996104E-17
      1.00000000000000E+04
      8.00000000000000E-01   0.00000000000000E+00  -1.26771747599451E+01  -3.03840931016824E-13   9.10544058555430E-16
     -9.87854054007733E-16  -8.93313896633673E-16  -3.56217154623636E-17  -1.72301619219613E-17  -1.58906602519667E-15
     -8.93313895314481E-16   7.59602327542059E-13   9.31382039958115E-16  -4.44094569883247E-16  -3.80681446401884E-17
      5.65420518342109E-16  -1.72301632411527E-17  -1.04513277632353E-15  -3.80681433209971E-17  -3.03840931016824E-13
      5.52983065618894E-17
      1.00000000000000E+04
      8.00000000000000E-01   0.00000000000000E+00  -1.31771747599451E+01  -7.59602327542059E-13   9.02422788428288E-16
     -9.71051188026662E-16  -8.86045481136124E-16  -3.32982870357400E-17  -1.63773072922979E-17  -3.04935863565427E-15
     -8.86045476412662E-16   4.55761396525235E-13   9.24881638381595E-16  -1.37493198570781E-15  -3.88361619669136E-17
      2.04501378472406E-15  -1.63773120157617E-17  -3.45326064264176E-15  -3.88361572434499E-17  -1.51920465508412E-13
      5.52134692586948E-17
      1.00000000000000E+04
      8.00000000000000E-01   0.00000000000000E+00  -1.36771747599451E+01  -6.07681862033647E-13   8.94382396022491E-16
     -9.54733338331141E-16  -8.78829142827548E-16  -3.09556789625791E-17  -1.55532531949558E-17  -7.38660472503519E-15
     -8.78829128446381E-16   1.51920465508412E-12   9.18411254338639E-16  -4.26796929066703E-15  -3.95821258899079E-17
      6.40068577818349E-15  -1.55532675761226E-17  -1.06996014872113E-14  -3.95821115087410E-17   1.51920465508412E-13
      5.51353790848979E-17
      1.00000000000000E+04
      8.00000000000000E-01   0.00000000000000E+00  -1.41771747599451E+01  -4.55761396525235E-13   8.86459020821009E-16
     -9.40979586158217E-16  -8.71697063914822E-16  -2.84015821782043E-17  -1.47619569063539E-17  -1.98922718832069E-14
     -8.71697022622591E-16   1.51920465508412E-13   9.11999352733148E-16  -1.30452942521076E-14  -4.03023301077690E-17
      1.89230149896849E-14  -1.47619981985872E-17  -3.19967049103783E-14  -4.03022888155356E-17  -4.55761396525235E-13
      5.50642870132991E-17
      1.00000000000000E+04
      8.00000000000000E-01   0.00000000000000E+00  -1.46771747599451E+01  -6.07681862033647E-13   8.78709602662305E-16
     -9.28678225283866E-16  -8.64700956864041E-16  -2.53928847063750E-17  -1.40086457983075E-17  -5.49552927379544E-14
     -8.64700842320067E-16   1.21536372406729E-12   9.05692689357828E-16  -3.89725719690691E-14  -4.09918470362145E-17
      5.40015527471565E-14  -1.40087603422814E-17  -9.29995141139077E-14  -4.09917324922406E-17  -1.51920465508412E-13
      5.50004928351228E-17
      1.00000000000000E+04
      8.00000000000000E-01   0.00000000000000E+00  -1.51771747599451E+01  -3.03840931016824E-13   8.71210844987872E-16
     -9.17554933282533E-16  -8.57911390702582E-16  -2.15226898449944E-17  -1.32994542854300E-17  -1.50548543484080E-13
     -8.57911081873855E-16   6.07681862033647E-13   8.99555907761623E-16  -1.13380030814658E-13  -4.16448258859564E-17
      1.49608791629445E-13  -1.32997631141577E-17  -2.63010344001792E-13  -4.16445170572287E-17  -1.51920465508412E-13
      5.49442801714828E-17
      1.00000000000000E+04
      8.00000000000000E-01   0.00000000000000E+00  -1.56771747599451E+01  -3.03840931016824E-13   8.64053626646465E-16
     -9.10545377219176E-16  -8.51412907841416E-16  -1.59979912335436E-17  -1.26407188052091E-17  -4.03767172210933E-13
     -8.51412097683241E-16   3.64609117220188E-12   8.93667179976837E-16  -3.20424113723556E-13  -4.22550822903446E-17
      4.02840050540574E-13  -1.26415289633843E-17  -7.23280161041116E-13  -4.22542721321694E-17   3.03840931016824E-13
      5.48958010960493E-17
      1.00000000000000E+04
      8.00000000000000E-01   0.00000000000000E+00  -1.61771747599451E+01  -7.59602327542059E-13   8.57332527356023E-16
     -9.11418646504477E-16  -8.45294540668077E-16  -7.12566923417718E-18  -1.20379866880979E-17  -1.05481370320384E-12
     -8.45292473571416E-16   6.22873908584488E-12   8.88109366466740E-16  -8.77876439189113E-13  -4.28168928930081E-17
      1.05389476211204E-12  -1.20400537847595E-17  -1.93177833864801E-12  -4.28148257963465E-17   7.59602327542059E-13
      5.48548795809869E-17
      1.00000000000000E+04
      8.00000000000000E-01   0.00000000000000E+00  -1.66771747599451E+01  -6.07681862033647E-13   8.51132237083654E-16
     -9.27463558721825E-16  -8.39637291417468E-16   8.83718162276565E-18  -1.14949456663803E-17  -2.67743306966305E-12
     -8.39632166540187E-16   8.05178467194583E-12   8.82957885929559E-16  -2.32707390142360E-12  -4.33257193871849E-17
      2.67651446685587E-12  -1.15000705436610E-17  -5.00357953972188E-12  -4.33205945099041E-17   1.97496605160935E-12
      5.48206650535280E-17
      1.00000000000000E+04
      8.00000000000000E-01   0.00000000000000E+00  -1.71771747599451E+01  -9.11522793050471E-13   8.45514597023413E-16
     -9.74591392401534E-16  -8.34502028878164E-16   4.00793307231173E-17  -1.10125681453668E-17  -6.59112935698928E-12
     -8.34489699112828E-16   1.30651600337234E-11   8.78268112107163E-16  -5.95646377267029E-12  -4.37784129919001E-17
      6.59019460500514E-12  -1.10248979107024E-17  -1.25466183208952E-11  -4.37660832265646E-17   6.38065955135330E-12
      5.47909811371873E-17
      1.00000000000000E+04
      8.00000000000000E-01   0.00000000000000E+00  -1.76771747599451E+01  -4.55761396525235E-13   8.40510405817896E-16
     -1.08812786354010E-15  -8.29921710122103E-16   1.03469467190476E-16  -1.05886956959464E-17  -1.57060394562459E-11
     -8.29892977420764E-16   3.28148205498169E-11   8.74065344523519E-16  -1.46905524868500E-11  -4.41723670998216E-17
      1.57050549694065E-11  -1.06174283972863E-17  -3.03955039973064E-11  -4.41436343984816E-17   1.51920465508412E-11
      5.47610627952507E-17
      1.00000000000000E+04
      8.00000000000000E-01   0.00000000000000E+00  -1.81771747599451E+01   3.03840931016824E-13   8.36118351309931E-16
     -1.32864640503814E-15  -8.25900276166118E-16   2.30047494760130E-16  -1.02180751439143E-17  -3.61421426248935E-11
     -8.25835582738789E-16   7.48967894956470E-11   8.70338687432132E-16  -3.48257031000952E-11  -4.45031046914907E-17
      3.61410435646217E-11  -1.02827685712432E-17  -7.09665166245152E-11  -4.44384112641617E-17   3.46378661359179E-11
      5.47211798349946E-17
      1.00000000000000E+04
      8.00000000000000E-01   0.00000000000000E+00  -1.86771747599451E+01  -3.03840931016824E-13   8.32310555502520E-16
     -1.78931277899824E-15  -8.22417921361563E-16   4.65703827998813E-16  -9.89263414107632E-18  -8.00701915919559E-11
     -8.22277663175782E-16   1.61491454835442E-10   8.67037572742990E-16  -7.91204049834690E-11  -4.47599095645246E-17
      8.00688675886564E-11  -1.00328923268582E-17  -1.59188806831061E-10  -4.46196513787427E-17   7.89986420643741E-11
      5.46525437051981E-17
      1.00000000000000E+04
      8.00000000000000E-01   0.00000000000000E+00  -1.91771747599451E+01  -7.59602327542059E-13   8.29042025666797E-16
     -2.54393199458389E-15  -8.19440304508927E-16   8.48306805049261E-16  -9.60172115798537E-18  -1.70096410603548E-10
     -8.19148837654106E-16   3.41821047393927E-10   8.64068400205617E-16  -1.71619474323826E-10  -4.49195625502164E-17
      1.70094714849544E-10  -9.89318801280710E-18  -3.41713340853496E-10  -4.46280956953944E-17   1.71973966955522E-10
      5.45212837078455E-17
      1.00000000000000E+04
      8.00000000000000E-01   0.00000000000000E+00  -1.96771747599451E+01   3.03840931016824E-13   8.26260703437397E-16
     -3.52859360234163E-15  -8.16928468340901E-16   1.34276261625332E-15  -9.33223509663454E-18  -3.44700816547775E-10
     -8.16351411316746E-16   6.99289902735220E-10   8.61291130268925E-16  -3.53691237813804E-10  -4.49397189506900E-17
      3.44698630988224E-10  -9.90929212078943E-18  -6.98388526050501E-10  -4.43626619265346E-17   3.53518923238074E-10
      5.42719540471559E-17
      1.00000000000000E+04
      8.00000000000000E-01   0.00000000000000E+00  -2.01771747599451E+01  -7.59602327542059E-13   8.23915378178216E-16
     -4.44108407151466E-15  -8.14846353559084E-16   1.79120946820933E-15  -9.06902461926319E-18  -6.62165949914769E-10
     -8.13766044311642E-16   1.35330750674893E-09   8.58522811543327E-16  -6.88421705396808E-10  -4.47567672298165E-17
      6.62163299578699E-10  -1.01493338667020E-17  -1.35058321378804E-09  -4.36764579823766E-17   6.88351629218614E-10
      5.38257918482375E-17
      1.00000000000000E+04
      8.00000000000000E-01   0.00000000000000E+00  -2.06771747599451E+01   1.51920465508412E-13   8.21959655781447E-16
     -4.94327650743449E-15  -8.13163238461490E-16   2.01556386469244E-15  -8.79641732009411E-18  -1.19743756152474E-09
     -8.11266775542915E-16   2.45305975656433E-09   8.55563713292837E-16  -1.25710221612984E-09  -4.42969377485191E-17
      1.19743463369932E-09  -1.06928802386680E-17  -2.45453483425959E-09  -4.24004748299441E-17   1.25714185208211E-09
      5.30933550684880E-17
      1.00000000000000E+04
      8.00000000000000E-01   0.00000000000000E+00  -2.11771747599451E+01  -1.51920465508412E-13   8.20351363170010E-16
     -4.98185175194677E-15  -8.11849782441231E-16   1.99129456143724E-15  -8.50158072887206E-18  -2.02579091454758E-09
     -8.08751341879052E-16   4.16763413029226E-09   8.52258604031454E-16  -2.14086487224111E-09  -4.35072621497797E-17
      2.02578792390219E-09  -1.16000212910479E-17  -4.16665080481621E-09  -4.04088215876037E-17   2.14101512041005E-09
      5.20088428783232E-17
      1.00000000000000E+04
      8.00000000000000E-01   0.00000000000000E+00  -2.16771747599451E+01  -1.06344325855888E-12   8.19048793571103E-16
     -4.73460421272321E-15  -8.10869908477804E-16   1.81881032378276E-15  -8.17888509344227E-18  -3.19477548356538E-09
     -8.06178328064324E-16   6.58727138444474E-09   8.48574447670154E-16  -3.38913611184101E-09  -4.23961196028729E-17
      3.19477256767653E-09  -1.28704655069193E-17  -6.58390686070725E-09  -3.77045391893939E-17   3.38858598316513E-09
      5.05750046966729E-17
      1.00000000000000E+04
      8.00000000000000E-01   0.00000000000000E+00  -2.21771747599451E+01   0.00000000000000E+00   8.18007411420391E-16
     -4.35308912737530E-15  -8.10175014347737E-16   1.58794615980623E-15  -7.83239707280203E-18  -4.69998937002275E-09
     -8.03583884685030E-16   9.69282954036769E-09   8.44635533410736E-16  -4.99261808166552E-09  -4.10516487236310E-17
      4.69998660415339E-09  -1.44235267355114E-17  -9.69260309789394E-09  -3.44605190609170E-17   4.99271417846845E-09
      4.88840457971248E-17
      1.00000000000000E+04
      8.00000000000000E-01   0.00000000000000E+00  -2.26771747599451E+01   0.00000000000000E+00   8.17180332156552E-16
     -3.93952709640516E-15  -8.09706306710611E-16   1.35282650100359E-15  -7.47402544609185E-18  -6.48377489369813E-09
     -8.01057870075069E-16   1.33644433507750E-08   8.40672479320703E-16  -6.88249576087758E-09  -3.96146092437629E-17
      6.48377230629649E-09  -1.61224620816359E-17  -1.33662667143669E-08  -3.09661726082099E-17   6.88245284892758E-09
      4.70886346895776E-17
      1.00000000000000E+04
      8.00000000000000E-01   0.00000000000000E+00  -2.31771747599451E+01   3.03840931016824E-13   8.16522296206074E-16
     -3.57398536577181E-15  -8.09403926648928E-16   1.14949545681051E-15  -7.11836955725286E-18  -8.45816411605071E-09
     -7.98695658384649E-16   1.74144910407637E-08   8.36919711218960E-16  -8.95715498556623E-09  -3.82240528314655E-17
      8.45816169172820E-09  -1.78266378215289E-17  -1.74153155277968E-08  -2.75157845671832E-17   8.95768640777248E-09
      4.53424223877409E-17
      1.00000000000000E+04
      8.00000000000000E-01   0.00000000000000E+00  -2.36771747599451E+01  -6.07681862033647E-13   8.15993929720369E-16
     -3.29634280004299E-15  -8.09216082004912E-16   9.92222744591345E-16  -6.77784771567129E-18  -1.05341490060626E-08
     -7.96561283319364E-16   2.16518566647244E-08   8.33537712255037E-16  -1.11156872516389E-08  -3.69764289322320E-17
      1.05341467024319E-08  -1.94326464012138E-17  -2.16498329618345E-08  -2.43216302466890E-17   1.11152608589229E-08
      4.37542766475610E-17
      1.00000000000000E+04
      8.00000000000000E-01   0.00000000000000E+00  -2.41771747599451E+01   1.06344325855888E-12   8.15563827537185E-16
     -3.09801717356026E-15  -8.09103392937073E-16   8.75498105092474E-16  -6.46043460026347E-18  -1.26405197000938E-08
     -7.94678201778475E-16   2.59188467794591E-08   8.30594687263605E-16  -1.32790241526031E-08  -3.59164854823011E-17
      1.26405174776220E-08  -2.08856257588648E-17  -2.59195407547497E-08  -2.14912943236874E-17   1.32787602082282E-08
      4.23769200824422E-17
      1.00000000000000E+04
      8.00000000000000E-01   0.00000000000000E+00  -2.46771747599451E+01   1.51920465508412E-13   8.15208348932520E-16
     -2.95144443729695E-15  -8.09038566195285E-16   7.86068775775380E-16  -6.16978273741811E-18  -1.47290519288615E-08
     -7.93038909314334E-16   3.01240052647320E-08   8.28088540282021E-16  -1.53952564818257E-08  -3.50496309652615E-17
      1.47290497633556E-08  -2.21694396183688E-17  -3.01243054591427E-08  -1.90499740842935E-17   1.53950122927604E-08
      4.12194137023677E-17
      1.00000000000000E+04
      8.00000000000000E-01   0.00000000000000E+00  -2.51771747599451E+01  -1.51920465508412E-13   8.14910223539821E-16
     -2.82865565713394E-15  -8.09003803516663E-16   7.12238045046354E-16  -5.90642002346653E-18  -1.67713954149790E-08
     -7.91619075917132E-16   3.42097542641152E-08   8.25978257193059E-16  -1.74355111728135E-08  -3.43591812732138E-17
      1.67713932981681E-08  -2.32911476229851E-17  -3.42069037587255E-08  -1.69744536736888E-17   1.74350003036074E-08
      4.02656012972093E-17
      1.00000000000000E+04
      8.00000000000000E-01   0.00000000000000E+00  -2.56771747599451E+01  -1.51920465508412E-13   8.14656939049579E-16
     -2.71144944241561E-15  -8.08987914067692E-16   6.46843948023779E-16  -5.66902498199063E-18  -1.87533909046069E-08
     -7.90388474277005E-16   3.81391771044903E-08   8.24208102083822E-16  -1.93870609347377E-08  -3.38196278033907E-17
      1.87533888391492E-08  -2.42684647726748E-17  -3.81404491270618E-08  -1.52201880126887E-17   1.93864186830629E-08
      3.94886527846180E-17
      1.00000000000000E+04
      8.00000000000000E-01   0.00000000000000E+00  -2.61771747599451E+01  -1.51920465508412E-13   8.14439373480401E-16
     -2.59351826859589E-15  -8.08983992716291E-16   5.86593272770762E-16  -5.45538076422767E-18  -2.06698764669363E-08
     -7.89317280262094E-16   4.19186544454085E-08   8.22721646026065E-16  -2.12471719717743E-08  -3.34043657617214E-17
      2.06698744597895E-08  -2.51220932184227E-17  -4.19170458449990E-08  -1.37376533075044E-17   2.12469886241444E-08
      3.88597465257895E-17
      1.00000000000000E+04