DF-ISE text

Info {
  version   = 1.0
  type      = xyplot
  datasets  = [
    "frequency"
    "v(Ntop)" "v(Ptop)" "v(Pbot)" "a(Ntop,Ntop)" "c(Ntop,Ntop)"
    "a(Ntop,Ptop)" "c(Ntop,Ptop)" "a(Ntop,Pbot)" "c(Ntop,Pbot)" "a(Ptop,Ntop)"
    "c(Ptop,Ntop)" "a(Ptop,Ptop)" "c(Ptop,Ptop)" "a(Ptop,Pbot)" "c(Ptop,Pbot)"
    "a(Pbot,Ntop)" "c(Pbot,Ntop)" "a(Pbot,Ptop)" "c(Pbot,Ptop)" "a(Pbot,Pbot)"
    "c(Pbot,Pbot)" ]
  functions = [
    Frequency
    Voltage Voltage Voltage Admittance Capacitance
    Admittance Capacitance Admittance Capacitance Admittance
    Capacitance Admittance Capacitance Admittance Capacitance
    Admittance Capacitance Admittance Capacitance Admittance
    Capacitance ]
}

Data {
      1.00000000000000E+04
      8.00000000000000E-01   0.00000000000000E+00  -5.00000000000000E-02   0.00000000000000E+00   1.53372782001554E-15
     -6.26235682631443E-15  -1.42854479685825E-15  -4.60421074472672E-15  -1.05183023157416E-16  -6.27702041434095E-15
     -1.42854480095300E-15  -4.55761396525235E-13   1.42855925923396E-15   5.93957372805752E-16  -1.44582784198134E-20
     -4.58987830373943E-15  -1.05183019062644E-16   5.79618903877586E-16  -1.44623731844503E-20   1.51920465508412E-13
      1.05197481434723E-16
      1.00000000000000E+04
      8.00000000000000E-01   0.00000000000000E+00  -1.45555555555556E-01   0.00000000000000E+00   1.52958137271410E-15
     -6.23828770457123E-15  -1.42852897609890E-15  -4.34240830650689E-15  -1.01052396615546E-16  -6.25287413263300E-15
     -1.42852898048493E-15   7.59602327542059E-13   1.42854916771449E-15   5.71005371696271E-16  -2.01872255987757E-20
     -4.32934101928037E-15  -1.01052392229552E-16   5.57947278592999E-16  -2.01916116069866E-20   0.00000000000000E+00
      1.01072583841238E-16
      1.00000000000000E+04
      8.00000000000000E-01   0.00000000000000E+00  -3.28172839506173E-01   1.51920465508412E-13   1.52284343354058E-15
     -6.20518594713774E-15  -1.42848080600512E-15  -3.93369496232144E-15  -9.43626275358325E-17  -6.21417698944759E-15
     -1.42848081087190E-15   4.55761396525235E-13   1.42851786207348E-15   5.33977508833252E-16  -3.70511979428998E-20
     -3.92398848814455E-15  -9.43626226690671E-17   5.24273864874597E-16  -3.70560647114476E-20  -1.51920465508412E-13
      9.43996787336590E-17
      1.00000000000000E+04
      8.00000000000000E-01   0.00000000000000E+00  -6.77174759945130E-01   1.51920465508412E-13   1.51286114206694E-15
     -6.16155689048513E-15  -1.42826616900120E-15  -3.38604946192364E-15  -8.45949730658892E-17  -6.15906165273660E-15
     -1.42826617461271E-15   1.51920465508412E-13   1.42837385700703E-15   4.80487463974227E-16  -1.07682391448509E-19
     -3.38831745730467E-15  -8.45949674543873E-17   4.82754530687567E-16  -1.07688002951735E-19   0.00000000000000E+00
      8.47026554566462E-17
      1.00000000000000E+04
      8.00000000000000E-01   0.00000000000000E+00  -1.17717475994513E+00  -1.51920465508412E-13   1.50186364539731E-15
     -6.16126242234194E-15  -1.42723126166335E-15  -2.84892783209983E-15  -7.46323837341396E-17  -6.11116630026340E-15
     -1.42723126830940E-15  -1.51920465508412E-13   1.42764810049877E-15   4.27334970487237E-16  -4.16832186614227E-19
     -2.89890805258623E-15  -7.46323770881102E-17   4.77321322491275E-16  -4.16838832648214E-19  -3.03840931016824E-13
      7.50492159217173E-17
      1.00000000000000E+04
      8.00000000000000E-01   0.00000000000000E+00  -1.67717475994513E+00  -7.59602327542059E-13   1.49092942376057E-15
     -6.26875447396438E-15  -1.42375629874803E-15  -2.42268188064786E-15  -6.71731250127741E-17  -6.08239285773288E-15
     -1.42375630707617E-15   6.07681862033647E-13   1.42507586562372E-15   3.88265550733610E-16  -1.31955854516679E-18
     -2.60910628755156E-15  -6.71731166846492E-17   5.74696982459687E-16  -1.31956687329422E-18   1.51920465508412E-13
      6.84926835583001E-17
      1.00000000000000E+04
      8.00000000000000E-01   0.00000000000000E+00  -2.17717475994513E+00   3.03840931016824E-13   1.47543008532252E-15
     -6.48875347609566E-15  -1.41435656728617E-15  -1.94533516490905E-15  -6.10735180366231E-17  -6.02685063804221E-15
     -1.41435657845366E-15  -1.36728418957571E-12   1.41767448428737E-15   3.53729377218866E-16  -3.31790582922973E-18
     -2.40698978523996E-15  -6.10735068691567E-17   8.15392255125204E-16  -3.31791699669887E-18  -1.51920465508412E-13
      6.43914238655626E-17
      1.00000000000000E+04
      8.00000000000000E-01   0.00000000000000E+00  -2.67717475994513E+00   1.51920465508412E-13   1.44922275836770E-15
     -6.72775304255545E-15  -1.39422187538866E-15  -1.49485333926216E-15  -5.50008829793255E-17  -5.84405150414182E-15
     -1.39422189045019E-15  -2.12688651711777E-12   1.40103206815522E-15   3.09610949459591E-16  -6.81017770189376E-18
     -2.37865939208330E-15  -5.50008679178048E-17   1.19341667257773E-15  -6.81019276341512E-18  -3.03840931016824E-13
      6.18110606801901E-17
      1.00000000000000E+04
      8.00000000000000E-01   0.00000000000000E+00  -3.17717475994513E+00   3.03840931016824E-13   1.41078816485142E-15
     -6.97861728104535E-15  -1.36217100006252E-15  -1.25744667729338E-15  -4.86171647890588E-17  -5.50263993171234E-15
     -1.36217101973249E-15   1.67112512059253E-12   1.37365577167213E-15   2.54034357799159E-16  -1.14847519372057E-17
     -2.73431640087487E-15  -4.86171451190987E-17   1.73090343901417E-15  -1.14847716071670E-17  -1.51920465508412E-13
      6.01019167258678E-17
      1.00000000000000E+04
      8.00000000000000E-01   0.00000000000000E+00  -3.67717475994513E+00   0.00000000000000E+00   1.36943852800409E-15
     -6.99383223339246E-15  -1.32653799784917E-15  -9.65485328386044E-16  -4.29005301552375E-17  -5.19351279912240E-15
     -1.32653801860628E-15   7.59602327542059E-13   1.34262914187337E-15   2.08943135932700E-16  -1.60911232637316E-17
     -2.76584038353518E-15  -4.29005093981409E-17   2.00930458159473E-15  -1.60911440208291E-17   1.51920465508412E-13
      5.89916534188293E-17
      1.00000000000000E+04
      8.00000000000000E-01   0.00000000000000E+00  -4.17717475994513E+00   0.00000000000000E+00   1.33521930210738E-15
     -6.84608142691767E-15  -1.29663086587392E-15  -7.44358618218730E-16  -3.85884362336301E-17  -5.06060736929068E-15
     -1.29663088443947E-15   1.21536372406729E-12   1.31632610800420E-15   1.85852100677470E-16  -1.96952235623585E-17
     -2.53027512952886E-15  -3.85884176680902E-17   1.97177590286693E-15  -1.96952421278989E-17  -1.51920465508412E-13
      5.82836597960496E-17
      1.00000000000000E+04
      8.00000000000000E-01   0.00000000000000E+00  -4.67717475994513E+00   1.51920465508412E-13   1.30922150708394E-15
     -6.41470857921673E-15  -1.27376122494642E-15  -5.69195983447241E-16  -3.54602821378372E-17  -4.91858652555260E-15
     -1.27376123945013E-15   1.21536372406729E-12   1.29611100734261E-15   1.65504861564067E-16  -2.23497678895529E-17
     -2.06388879292346E-15  -3.54602676341466E-17   1.66021932632781E-15  -2.23497823932447E-17   4.55761396525235E-13
      5.78100500270059E-17
      1.00000000000000E+04
      8.00000000000000E-01   0.00000000000000E+00  -5.17717475994513E+00   3.03840931016824E-13   1.28865339736336E-15
     -5.65943440743236E-15  -1.25560641127432E-15  -4.21449446258083E-16  -3.30469860892270E-17  -4.57706930670076E-15
     -1.25560642146185E-15   1.97496605160935E-12   1.28002045989057E-15   1.31136983707316E-16  -2.44140384257436E-17
     -1.50285858663792E-15  -3.30469759017055E-17   1.21255879533100E-15  -2.44140486132658E-17   3.03840931016824E-13
      5.74610245147478E-17
      1.00000000000000E+04
      8.00000000000000E-01   0.00000000000000E+00  -5.67717475994513E+00   0.00000000000000E+00   1.27124453122337E-15
     -4.92890047873612E-15  -1.24020732852988E-15  -3.10944205741224E-16  -3.10372026935980E-17  -4.19657247742963E-15
     -1.24020733556533E-15  -1.06344325855888E-12   1.26634989490253E-15   9.65795850679800E-17  -2.61425593327173E-17
     -1.04319118599819E-15  -3.10371956581537E-17   8.28825703259878E-16  -2.61425663681625E-17   0.00000000000000E+00
      5.71797620264637E-17
      1.00000000000000E+04
      8.00000000000000E-01   0.00000000000000E+00  -6.17717475994513E+00   1.51920465508412E-13   1.25570810991888E-15
     -4.43116145425996E-15  -1.22644294963295E-15  -2.40803376826456E-16  -2.92651602861701E-17  -3.92001528903858E-15
     -1.22644295483592E-15  -3.03840931016824E-13   1.25411631220412E-15   7.26017105296464E-17  -2.76733573634359E-17
     -7.51324443372304E-16  -2.92651550831987E-17   5.83118970470507E-16  -2.76733625664072E-17  -6.07681862033647E-13
      5.69385176495246E-17
      1.00000000000000E+04
      8.00000000000000E-01   0.00000000000000E+00  -6.67717475994513E+00   0.00000000000000E+00   1.24133937456451E-15
     -4.11238765080219E-15  -1.21369648195763E-15  -1.96646851498897E-16  -2.76428926070325E-17  -3.73405546744989E-15
     -1.21369648611991E-15  -1.36728418957571E-12   1.24277676338475E-15   5.68247690613684E-17  -2.90802772612273E-17
     -5.76133180653691E-16  -2.76428884447540E-17   4.36309651245079E-16  -2.90802814235059E-17   4.55761396525235E-13
      5.67231698683433E-17
      1.00000000000000E+04
      8.00000000000000E-01   0.00000000000000E+00  -7.17717475994513E+00   3.03840931016824E-13   1.22772309433862E-15
     -3.90168064688257E-15  -1.20160282869012E-15  -1.66227771701010E-16  -2.61202656488031E-17  -3.60160982809924E-15
     -1.20160283221461E-15   3.19032977567665E-12   1.23200853259911E-15   4.55134297143470E-17  -3.04057003805540E-17
     -4.66234285570367E-16  -2.61202621243104E-17   3.45520700051738E-16  -3.04057039050467E-17   1.51920465508412E-13
      5.65259660290160E-17
      1.00000000000000E+04
      8.00000000000000E-01   0.00000000000000E+00  -7.67717475994513E+00   3.03840931016824E-13   1.21458478845183E-15
     -3.74918490484520E-15  -1.18991888902079E-15  -1.43039588421273E-16  -2.46658994312515E-17  -3.49920010636606E-15
     -1.18991889211926E-15   7.59602327542059E-13   1.22159530308029E-15   3.65550714446262E-17  -3.16764109574246E-17
     -3.93083272636743E-16  -2.46658963327838E-17   2.86595741951113E-16  -3.16764140558928E-17  -1.51920465508412E-13
      5.63423103881180E-17
      1.00000000000000E+04
      8.00000000000000E-01   0.00000000000000E+00  -8.17717475994513E+00   1.51920465508412E-13   1.20171682029450E-15
     -3.63358080558535E-15  -1.17845876117929E-15  -1.24221280747932E-16  -2.32580591157156E-17  -3.41506833454989E-15
     -1.17845876397339E-15   2.58264791364300E-12   1.21136999029519E-15   2.89239483653913E-17  -3.29112263186250E-17
     -3.42564991116153E-16  -2.32580563216205E-17   2.47272607458353E-16  -3.29112291127198E-17  -1.51920465508412E-13
      5.61692854329554E-17
      1.00000000000000E+04
      8.00000000000000E-01   0.00000000000000E+00  -8.67717475994513E+00   3.03840931016824E-13   1.18893715773059E-15
     -3.53994392711769E-15  -1.16705732595914E-15  -1.08427452421218E-16  -2.18798317714640E-17  -3.34252612047358E-15
     -1.16705732852239E-15   1.21536372406729E-12   1.20118239424408E-15   2.20883873368268E-17  -3.41250657193560E-17
     -3.06283027285671E-16  -2.18798292082253E-17   2.19945461805659E-16  -3.41250682825952E-17  -1.51920465508412E-13
      5.60048974909321E-17
      1.00000000000000E+04
      8.00000000000000E-01   0.00000000000000E+00  -9.17717475994513E+00  -1.51920465508412E-13   1.17606092983480E-15
     -3.46204963834636E-15  -1.15554481980322E-15  -9.49124550559439E-17  -2.05161100317219E-17  -3.27853052101209E-15
     -1.15554482218125E-15   4.55761396525235E-13   1.19087635057477E-15   1.57280741299357E-17  -3.53315283887211E-17
     -2.78702344384519E-16  -2.05161076536947E-17   1.99504701659673E-16  -3.53315307667481E-17   3.03840931016824E-13
      5.58476384199000E-17
      1.00000000000000E+04
      8.00000000000000E-01   0.00000000000000E+00  -9.67717475994513E+00   3.03840931016824E-13   1.16287614021231E-15
     -3.39368715487404E-15  -1.14372473011605E-15  -8.34402226934958E-17  -1.91514100964553E-17  -3.21940728268590E-15
     -1.14372473234025E-15   1.67112512059253E-12   1.18026953298511E-15   9.52496690987422E-18  -3.65448006411580E-17
     -2.57563271793586E-16  -1.91514078722542E-17   1.83650838711561E-16  -3.65448028653587E-17  -3.03840931016824E-13
      5.56962107373963E-17
      1.00000000000000E+04
      8.00000000000000E-01   0.00000000000000E+00  -1.01771747599451E+01   3.03840931016824E-13   1.14912109921465E-15
     -3.33270758470371E-15  -1.13135280968327E-15  -7.39998070125954E-17  -1.77682895315831E-17  -3.16481247937475E-15
     -1.13135281177689E-15  -3.03840931016824E-13   1.16913389227943E-15   2.79780693547612E-18  -3.77810804988636E-17
     -2.42391107922390E-16  -1.77682874379597E-17   1.71185515800858E-16  -3.77810825924868E-17   1.51920465508412E-13
      5.55493700292307E-17
      1.00000000000000E+04
      8.00000000000000E-01   0.00000000000000E+00  -1.06771747599451E+01  -1.51920465508412E-13   1.13446837649888E-15
     -3.27749479554406E-15  -1.11812159703271E-15  -6.61470301429127E-17  -1.63467794665434E-17  -3.11586048640434E-15
     -1.11812159900186E-15   1.21536372406729E-12   1.15718072180790E-15  -6.54125184147600E-18  -3.90591228022027E-17
     -2.28920387757678E-16  -1.63467774973909E-17   1.56214985761775E-16  -3.90591247713552E-17  -3.03840931016824E-13
      5.54059022679701E-17
      1.00000000000000E+04
      8.00000000000000E-01   0.00000000000000E+00  -1.11771747599451E+01   3.03840931016824E-13   1.11853674150893E-15
     -3.22514421923489E-15  -1.10367026105618E-15  -5.92152003797835E-17  -1.48664804530458E-17  -3.07955731840909E-15
     -1.10367026287122E-15   1.97496605160935E-12   1.14406862642151E-15  -2.55789963892731E-17  -4.03983635464933E-17
     -2.05776519032388E-16  -1.48664786380018E-17   1.20991342184141E-16  -4.03983653615376E-17   1.51920465508412E-13
      5.52648439987417E-17
      1.00000000000000E+04
      8.00000000000000E-01   0.00000000000000E+00  -1.16771747599451E+01  -1.51920465508412E-13   1.10099000204077E-15
     -3.17356891497927E-15  -1.08767460976278E-15  -5.28736422211263E-17  -1.33153922783308E-17  -3.08021351306917E-15
     -1.08767461131718E-15  -9.11522793050471E-13   1.12948542046900E-15  -7.83550696877846E-17  -4.18108091481004E-17
     -1.46147767522449E-16  -1.33153907239409E-17   1.49197002204445E-17  -4.18108107024904E-17   4.55761396525235E-13
      5.51262014263084E-17
      1.00000000000000E+04
      8.00000000000000E-01   0.00000000000000E+00  -1.21771747599451E+01   3.03840931016824E-13   1.08182882847132E-15
     -3.12132950762503E-15  -1.07011720203913E-15  -4.69594640318355E-17  -1.17116264324758E-17  -3.19451292500495E-15
     -1.07011720303183E-15  -7.59602327542059E-13   1.11339804827517E-15  -2.46026838982824E-16  -4.32808452398474E-17
      2.55748366068110E-17  -1.17116254397750E-17  -3.18565573390486E-16  -4.32808462325482E-17   0.00000000000000E+00
      5.49924716716371E-17
      1.00000000000000E+04
      8.00000000000000E-01   0.00000000000000E+00  -1.26771747599451E+01  -3.03840931016824E-13   1.06189896961500E-15
     -3.07080870326051E-15  -1.05176360990597E-15  -4.14405892487049E-17  -1.01353597092562E-17  -3.63526228152135E-15
     -1.05176360954008E-15   9.11522793050471E-13   1.09649870969720E-15  -7.99713247455198E-16  -4.47351001538772E-17
      5.22144985172001E-16  -1.01353600751475E-17  -1.36330689964475E-15  -4.47350997879860E-17  -3.03840931016824E-13
      5.48704598622240E-17
      1.00000000000000E+04
      8.00000000000000E-01   0.00000000000000E+00  -1.31771747599451E+01   0.00000000000000E+00   1.04314273077274E-15
     -3.02709357485678E-15  -1.03440962352001E-15  -3.63708988929019E-17  -8.73310725288532E-18  -4.99841819017631E-15
     -1.03440961971982E-15   7.59602327542059E-13   1.08044701698548E-15  -2.61795890383965E-15  -4.60373972619302E-17
      1.93587905323315E-15  -8.73311105307979E-18  -4.59021372727033E-15  -4.60373934617356E-17   1.51920465508412E-13
      5.47705045146940E-17
      1.00000000000000E+04
      8.00000000000000E-01   0.00000000000000E+00  -1.36771747599451E+01   1.51920465508412E-13   1.02772858190936E-15
     -2.98639104514371E-15  -1.02008617009485E-15  -3.16650163620108E-17  -7.64241181479671E-18  -8.97019692103841E-15
     -1.02008615729496E-15   4.55761396525235E-13   1.06714407658648E-15  -8.44922170568900E-15  -4.70579192887033E-17
      5.95107266787844E-15  -7.64242461468049E-18  -1.44319557128624E-14  -4.70579064888196E-17   0.00000000000000E+00
      5.47003311032954E-17
      1.00000000000000E+04
      8.00000000000000E-01   0.00000000000000E+00  -1.41771747599451E+01   1.51920465508412E-13   1.01657746594364E-15
     -2.95277900800354E-15  -1.00968276255371E-15  -2.69510767229405E-17  -6.89470339025763E-18  -2.04017352702514E-14
     -1.00968272534367E-15   7.59602327542059E-13   1.05744707790061E-15  -2.65677885589597E-14  -4.77643525528783E-17
      1.74219058963733E-14  -6.89474060029789E-18  -4.40166487289337E-14  -4.77643153428381E-17   1.51920465508412E-13
      5.46590559422437E-17
      1.00000000000000E+04
      8.00000000000000E-01   0.00000000000000E+00  -1.46771747599451E+01   3.03840931016824E-13   1.00912216020026E-15
     -2.91993960580321E-15  -1.00270206956052E-15  -2.16419813576980E-17  -6.42009063999224E-18  -5.30571695351810E-14
     -1.00270196518272E-15   1.51920465508412E-13   1.05092111096922E-15  -8.09122460357949E-14  -4.82191457837579E-17
      5.01149145005460E-14  -6.42019501778856E-18  -1.31048813639110E-13  -4.82190414059618E-17   0.00000000000000E+00
      5.46392364232207E-17
      1.00000000000000E+04
      8.00000000000000E-01   0.00000000000000E+00  -1.51771747599451E+01  -3.03840931016824E-13   1.00423237897585E-15
     -2.88844358282517E-15  -9.98109293869662E-16  -1.49028977926191E-17  -6.12308510645008E-18  -1.44704947901338E-13
     -9.98109006263547E-16  -3.03840931016824E-13   1.04661873452220E-15  -2.37972417358049E-13  -4.85097282562263E-17
      1.41800935823331E-13  -6.12337271256368E-18  -3.79788244533691E-13  -4.85094406501127E-17   1.51920465508412E-13
      5.46328133623682E-17
      1.00000000000000E+04
      8.00000000000000E-01   0.00000000000000E+00  -1.56771747599451E+01   1.51920465508412E-13   1.00093869844829E-15
     -2.86001503503861E-15  -9.95008473097700E-16  -5.23788152566204E-18  -5.93022535075279E-18  -3.95055861765515E-13
     -9.95007697259632E-16   3.79801163771029E-12   1.04371145534468E-15  -6.74797110531151E-13  -4.87037580819065E-17
      3.92190002790482E-13  -5.93100118882326E-18  -1.06699235996880E-12  -4.87029822438361E-17   7.59602327542059E-13
      5.46339834328645E-17
      1.00000000000000E+04
      8.00000000000000E-01   0.00000000000000E+00  -1.61771747599451E+01   3.03840931016824E-13   9.98603980809157E-16
     -2.84105162413468E-15  -9.92807707459176E-16   1.05604950424363E-17  -5.79627335021964E-18  -1.05666536442645E-12
     -9.92805671005855E-16   2.88648884465982E-12   1.04164830229859E-15  -1.84256185502113E-12  -4.88426312893697E-17
      1.05383523265997E-12  -5.79830980354420E-18  -2.89638653496783E-12  -4.88405948360452E-17   1.21536372406729E-12
      5.46389046387839E-17
      1.00000000000000E+04
      8.00000000000000E-01   0.00000000000000E+00  -1.66771747599451E+01  -4.55761396525235E-13   9.96851033678461E-16
     -2.84290177846921E-15  -9.91155361651501E-16   3.96517377645315E-17  -5.69567202718086E-18  -2.74153902274283E-12
     -9.91150185906635E-16   8.81138699948788E-12   1.04009879105862E-15  -4.83909608399366E-12  -4.89486051483977E-17
      2.73873558813037E-12  -5.70084777204678E-18  -7.57779202373182E-12  -4.89434294035319E-17   5.01337536177759E-12
      5.46442771749370E-17
      1.00000000000000E+04
      8.00000000000000E-01   0.00000000000000E+00  -1.71771747599451E+01   3.03840931016824E-13   9.95463225390185E-16
     -2.89332267809704E-15  -9.89849104349860E-16   9.73104553354208E-17  -5.61412104053592E-18  -6.86362947918514E-12
     -9.89836414487206E-16   2.02054219126188E-11   1.03886777708729E-15  -1.22073212292992E-11  -4.90313625969561E-17
      6.86083327910233E-12  -5.62681090318904E-18  -1.90680571960207E-11  -4.90186727343030E-17   1.30651600337234E-11
      5.46454836372307E-17
      1.00000000000000E+04
      8.00000000000000E-01   0.00000000000000E+00  -1.76771747599451E+01  -1.51920465508412E-13   9.94315412794058E-16
     -3.03965332941957E-15  -9.88772246134365E-16   2.12944315114644E-16  -5.54316665989133E-18  -1.65231860927822E-11
     -9.88742326929582E-16   4.52722987215067E-11   1.03783306978152E-15  -2.95296263270054E-11  -4.90907428493271E-17
      1.65203588084788E-11  -5.57308586467596E-18  -4.60497721884152E-11  -4.90608236445424E-17   2.99283317051571E-11
      5.46339095088569E-17
      1.00000000000000E+04
      8.00000000000000E-01   0.00000000000000E+00  -1.81771747599451E+01   0.00000000000000E+00   9.93333804755166E-16
     -3.35753519542803E-15  -9.87856754254699E-16   4.33487588447148E-16  -5.47705050070385E-18  -3.81281335774317E-11
     -9.87789143000417E-16   1.06952007717922E-10   1.03690480650445E-15  -6.83425037662455E-11  -4.91156635018110E-17
      3.81252090403101E-11  -5.54466175498718E-18  -1.06467279324717E-10  -4.90480522475277E-17   6.83642094787853E-11
      5.45927140025832E-17
      1.00000000000000E+04
      8.00000000000000E-01   0.00000000000000E+00  -1.86771747599451E+01   1.51920465508412E-13   9.92474072467720E-16
     -3.92728490126512E-15  -9.87063272239613E-16   8.07222936357386E-16  -5.41080022825748E-18  -8.40346240174298E-11
     -9.86917420133371E-16   2.36388244331089E-10   1.03599720903901E-15  -1.50852884823636E-10  -4.90797889027934E-17
      8.40315055247462E-11  -5.55665233450149E-18  -2.34883583120670E-10  -4.89339367965492E-17   1.50553181318836E-10
      5.44905891302516E-17
      1.00000000000000E+04
      8.00000000000000E-01   0.00000000000000E+00  -1.91771747599451E+01   0.00000000000000E+00   9.91709637072990E-16
     -4.73057376267194E-15  -9.86370649485323E-16   1.32259882653428E-15  -5.33898758790222E-18  -1.76107785923168E-10
     -9.86071879811215E-16   4.90855024057678E-10   1.03500741170679E-15  -3.16207625671686E-10  -4.89355318923947E-17
      1.76104377670328E-10  -5.63775726200980E-18  -4.92310680738704E-10  -4.86367622182870E-17   3.16146488723005E-10
      5.42745194803879E-17
      1.00000000000000E+04
      8.00000000000000E-01   0.00000000000000E+00  -1.96771747599451E+01  -3.03840931016824E-13   9.91025284482812E-16
     -5.55716141748223E-15  -9.85770203614855E-16   1.83639622361492E-15  -5.25508086811970E-18  -3.48940655707288E-10
     -9.85192987486188E-16   9.75481309029512E-10   1.03380410468722E-15  -6.25907723213548E-10  -4.86111171974045E-17
      3.48936934686460E-10  -5.83229699678681E-18  -9.74842821509007E-10  -4.80339010687367E-17   6.25912317894657E-10
      5.38661980651141E-17
      1.00000000000000E+04
      8.00000000000000E-01   0.00000000000000E+00  -2.01771747599451E+01  -4.55761396525235E-13   9.90413220604249E-16
     -6.08693894480929E-15  -9.85261456004300E-16   2.14132834879552E-15  -5.15176460027280E-18  -6.49466578193374E-10
     -9.84217984284621E-16   1.81180347165332E-09   1.03223805643776E-15  -1.16233543273290E-09  -4.80200721490978E-17
      6.49462632392477E-10  -6.19523631995378E-18  -1.81179592379798E-09  -4.69766004294165E-17   1.16188772020833E-09
      5.31718367487184E-17
      1.00000000000000E+04
      8.00000000000000E-01   0.00000000000000E+00  -2.06771747599451E+01  -3.03840931016824E-13   9.89869808771984E-16
     -6.19442659733366E-15  -9.84847124266342E-16   2.16306742378062E-15  -5.02268450591259E-18  -1.12853019334064E-09
     -9.83095327299091E-16   3.13943641973133E-09   1.03018758743281E-15  -2.01247759245839E-09  -4.70922601287251E-17
      1.12852616136192E-09  -6.77448147316153E-18  -3.14100159074151E-09  -4.53404631614748E-17   2.01294616798646E-09
      5.21149446347005E-17
      1.00000000000000E+04
      8.00000000000000E-01   0.00000000000000E+00  -2.11771747599451E+01  -4.55761396525235E-13   9.89392308494244E-16
     -5.99467616534119E-15  -9.84527036334630E-16   1.98621631465447E-15  -4.86527215976627E-18  -1.82355325161595E-09
     -9.81808720968275E-16   5.06123030841274E-09   1.02762836506817E-15  -3.23594861582319E-09  -4.58196440965541E-17
      1.82354924398282E-09  -7.58358752612252E-18  -5.05949587360045E-09  -4.31013287301942E-17   3.23605783579468E-09
      5.06849162565507E-17
      1.00000000000000E+04
      8.00000000000000E-01   0.00000000000000E+00  -2.16771747599451E+01  -1.51920465508412E-13   9.88976204631268E-16
     -5.64135282601317E-15  -9.84293339539516E-16   1.72302375714513E-15  -4.68286509201007E-18  -2.74064723710696E-09
     -9.80392827485770E-16   7.57110831907721E-09   1.02467670471505E-15  -4.83346218086336E-09  -4.42838772264370E-17
      2.74064331912259E-09  -8.58337714575510E-18  -7.57410377694753E-09  -4.03833651726924E-17   4.83274192828809E-09
      4.89667423179553E-17
      1.00000000000000E+04
      8.00000000000000E-01   0.00000000000000E+00  -2.21771747599451E+01  -1.51920465508412E-13   9.88614272467430E-16
     -5.26900502543882E-15  -9.84130143506309E-16   1.45738413338636E-15  -4.48412896129165E-18  -3.84969751799131E-09
     -9.78922480986684E-16   1.05912871733844E-08   1.02155638049082E-15  -6.74047336276090E-09  -4.26338994999392E-17
      3.84969370631543E-09  -9.69179148091977E-18  -1.05901656117140E-08  -3.74262369803027E-17   6.74071105460823E-09
      4.71180284609526E-17
      1.00000000000000E+04
      8.00000000000000E-01   0.00000000000000E+00  -2.26771747599451E+01   1.51920465508412E-13   9.88297555430154E-16
     -4.96025418136808E-15  -9.84017625777886E-16   1.23686840577489E-15  -4.27992965240005E-18  -5.09666327641848E-09
     -9.77480821320199E-16   1.39493371429824E-08   1.01850708116976E-15  -8.85231677999511E-09  -4.10262598449521E-17
      5.09665955310221E-09  -1.08167341100893E-17  -1.39489750962672E-08  -3.44894553872502E-17   8.85255744564066E-09
      4.53061894973590E-17
      1.00000000000000E+04
      8.00000000000000E-01   0.00000000000000E+00  -2.31771747599451E+01   4.55761396525235E-13   9.88017096531474E-16
     -4.73382458010764E-15  -9.83937168706955E-16   1.06988974371031E-15  -4.07992782483549E-18  -6.42296531495334E-09
     -9.76130786530277E-16   1.74822475683805E-08   1.01570511435730E-15  -1.10607387883445E-08  -3.95743278236625E-17
      6.42296165150263E-09  -1.18863100015137E-17  -1.74836993699592E-08  -3.17679456469829E-17   1.10608733322709E-08
      4.36542556474735E-17
      1.00000000000000E+04
      8.00000000000000E-01   0.00000000000000E+00  -2.36771747599451E+01  -1.51920465508412E-13   9.87765192339287E-16
     -4.56330264041047E-15  -9.83874424100371E-16   9.42377342490122E-16  -3.89076823934525E-18  -7.77962613605571E-09
     -9.74905221371757E-16   2.10604302925001E-08   1.01323839333385E-15  -1.32790499112700E-08  -3.83331719597059E-17
      7.77962251493522E-09  -1.28599709679634E-17  -2.10586714838534E-08  -2.93639692310791E-17   1.32787602082282E-08
      4.22239401983409E-17
      1.00000000000000E+04
      8.00000000000000E-01   0.00000000000000E+00  -2.41771747599451E+01  -1.51920465508412E-13   9.87535812105740E-16
     -4.42106066818454E-15  -9.83819834582395E-16   8.37802148754671E-16  -3.71597752359479E-18  -9.13226511950472E-09
     -9.73811970934751E-16   2.45845293308987E-08   1.01112354446851E-15  -1.54496972058674E-08  -3.73115735299321E-17
      9.13226153658295E-09  -1.37238411712382E-17  -2.45819579046504E-08  -2.73037098822783E-17   1.54500075012745E-08
      4.10275510536621E-17
      1.00000000000000E+04
      8.00000000000000E-01   0.00000000000000E+00  -2.46771747599451E+01   3.03840931016824E-13   9.87324459018673E-16
     -4.28446734287865E-15  -9.83767730186235E-16   7.45876826038209E-16  -3.55672883279565E-18  -1.04598562983355E-08
     -9.72843777145748E-16   2.79983341113383E-08   1.00933544169305E-15  -1.75405115606636E-08  -3.64916645448284E-17
      1.04598527583251E-08  -1.44806818732798E-17  -2.80003635731143E-08  -2.55677115043369E-17   1.75401292657392E-08
      4.00483933770403E-17
      1.00000000000000E+04
      8.00000000000000E-01   0.00000000000000E+00  -2.51771747599451E+01   0.00000000000000E+00   9.87127831568965E-16
     -4.15251488139646E-15  -9.83715096100151E-16   6.62419027902043E-16  -3.41273546896006E-18  -1.17512124088202E-08
     -9.71986603486140E-16   3.12857410644748E-08   1.00783125943878E-15  -1.95372820565427E-08  -3.58446559493690E-17
      1.17512089186220E-08  -1.51412280829601E-17  -3.12884903127295E-08  -2.41161633353573E-17   1.95372757053128E-08
      3.92573914187623E-17
      1.00000000000000E+04
      8.00000000000000E-01   0.00000000000000E+00  -2.56771747599451E+01   3.03840931016824E-13   9.86943490002725E-16
     -4.02299065736891E-15  -9.83660543026178E-16   5.86557252098152E-16  -3.28294697681457E-18  -1.30015297042951E-08
     -9.71224771563743E-16   3.44397618488949E-08   1.00656492444627E-15  -2.14369196368960E-08  -3.53401528796886E-17
      1.30015262690052E-08  -1.57187184392431E-17  -3.44384453193363E-08  -2.29043814172500E-17   2.14367372855644E-08
      3.86230998560410E-17
      1.00000000000000E+04
      8.00000000000000E-01   0.00000000000000E+00  -2.61771747599451E+01   3.03840931016824E-13   9.86769596633581E-16
     -3.89637138713028E-15  -9.83603598878952E-16   5.18463693386899E-16  -3.16599775487405E-18  -1.42097882934618E-08
     -9.70543519499948E-16   3.74526485208577E-08   1.00549405637457E-15  -2.32425112829218E-08  -3.49505368714331E-17
      1.42097849150541E-08  -1.62260771338763E-17  -3.74522956795361E-08  -2.18904574924095E-17   2.32424639385974E-08
      3.81165346259278E-17
      1.00000000000000E+04