DF-ISE text

Info {
  version   = 1.0
  type      = xyplot
  datasets  = [
    "frequency"
    "v(Ntop)" "v(Ptop)" "v(Pbot)" "a(Ntop,Ntop)" "c(Ntop,Ntop)"
    "a(Ntop,Ptop)" "c(Ntop,Ptop)" "a(Ntop,Pbot)" "c(Ntop,Pbot)" "a(Ptop,Ntop)"
    "c(Ptop,Ntop)" "a(Ptop,Ptop)" "c(Ptop,Ptop)" "a(Ptop,Pbot)" "c(Ptop,Pbot)"
    "a(Pbot,Ntop)" "c(Pbot,Ntop)" "a(Pbot,Ptop)" "c(Pbot,Ptop)" "a(Pbot,Pbot)"
    "c(Pbot,Pbot)" ]
  functions = [
    Frequency
    Voltage Voltage Voltage Admittance Capacitance
    Admittance Capacitance Admittance Capacitance Admittance
    Capacitance Admittance Capacitance Admittance Capacitance
    Admittance Capacitance Admittance Capacitance Admittance
    Capacitance ]
}

Data {
      1.00000000000000E+04
      8.00000000000000E-01   0.00000000000000E+00  -5.00000000000000E-02   0.00000000000000E+00   1.53372782003324E-15
     -4.04524557980448E-15  -1.42854479687619E-15  -4.60421076595504E-15  -1.05183023157278E-16  -4.05943772184470E-15
     -1.42854480097032E-15  -4.55761396525235E-13   1.42855925925126E-15   5.93957372643117E-16  -1.44582784019698E-20
     -4.58986896650428E-15  -1.05183019063166E-16   5.79618905315362E-16  -1.44623725205914E-20   1.51920465508412E-13
      1.05197481435081E-16
      1.00000000000000E+04
      8.00000000000000E-01   0.00000000000000E+00  -1.45555555555556E-01   0.00000000000000E+00   1.52958137273193E-15
     -4.02252114584111E-15  -1.42852897611679E-15  -4.34240831260713E-15  -1.01052396615438E-16  -4.03534980926118E-15
     -1.42852898050220E-15   7.59602327542059E-13   1.42854916773060E-15   5.71005371412067E-16  -2.01872255819762E-20
     -4.32934117770271E-15  -1.01052392230051E-16   5.57947278725015E-16  -2.01916109820218E-20   0.00000000000000E+00
      1.01072583840507E-16
      1.00000000000000E+04
      8.00000000000000E-01   0.00000000000000E+00  -3.28172839506173E-01   1.51920465508412E-13   1.52284343355858E-15
     -3.98639637324392E-15  -1.42848080602304E-15  -3.93369494496049E-15  -9.43626275357650E-17  -3.99652089894388E-15
     -1.42848081088926E-15   7.59602327542059E-13   1.42851786209050E-15   5.33977508862214E-16  -3.70511979254819E-20
     -3.92398599298737E-15  -9.43626226695724E-17   5.24273866008339E-16  -3.70560641244602E-20  -3.03840931016824E-13
      9.43996787329549E-17
      1.00000000000000E+04
      8.00000000000000E-01   0.00000000000000E+00  -6.77174759945130E-01   1.51920465508412E-13   1.51286114208454E-15
     -3.94311241253220E-15  -1.42826616901900E-15  -3.38604943261617E-15  -8.45949730658208E-17  -3.94129508163977E-15
     -1.42826617463000E-15   1.51920465508412E-13   1.42837385702448E-15   4.80487463469072E-16  -1.07682391430174E-19
     -3.38831642920378E-15  -8.45949674548248E-17   4.82754532156897E-16  -1.07688002426786E-19   0.00000000000000E+00
      8.47026554569310E-17
      1.00000000000000E+04
      8.00000000000000E-01   0.00000000000000E+00  -1.17717475994513E+00  -1.51920465508412E-13   1.50186364541484E-15
     -3.94311750734825E-15  -1.42723126168092E-15  -2.84892779623081E-15  -7.46323837341006E-17  -3.89329907811210E-15
     -1.42723126832652E-15   1.51920465508412E-13   1.42764810051619E-15   4.27334967474167E-16  -4.16832186591615E-19
     -2.89891107373299E-15  -7.46323770884965E-17   4.77321305846002E-16  -4.16838832195956E-19  -3.03840931016824E-13
      7.50492159217194E-17
      1.00000000000000E+04
      8.00000000000000E-01   0.00000000000000E+00  -1.67717475994513E+00  -7.59602327542059E-13   1.49092942377799E-15
     -4.05179289331278E-15  -1.42375629876554E-15  -2.42268179341962E-15  -6.71731250127453E-17  -3.86511183845457E-15
     -1.42375630709331E-15   4.55761396525235E-13   1.42507586564149E-15   3.88265550498955E-16  -1.31955854514753E-18
     -2.60911369528053E-15  -6.71731166849736E-17   5.74696837327530E-16  -1.31956687291856E-18   1.51920465508412E-13
      6.84926835573729E-17
      1.00000000000000E+04
      8.00000000000000E-01   0.00000000000000E+00  -2.17717475994513E+00   3.03840931016824E-13   1.47543008533951E-15
     -4.27055340654984E-15  -1.41435656730324E-15  -1.94533518439696E-15  -6.10735180365448E-17  -3.80904940549182E-15
     -1.41435657847042E-15  -1.06344325855888E-12   1.41767448430211E-15   3.53729363784527E-16  -3.31790582926438E-18
     -2.40700419502668E-15  -6.10735068693658E-17   8.15391472871979E-16  -3.31791699644287E-18  -1.51920465508412E-13
      6.43914238658341E-17
      1.00000000000000E+04
      8.00000000000000E-01   0.00000000000000E+00  -2.67717475994513E+00   1.51920465508412E-13   1.44922275838356E-15
     -4.51021484831243E-15  -1.39422187540471E-15  -1.49485322244827E-15  -5.50008829790935E-17  -3.62640332111947E-15
     -1.39422189046596E-15  -1.82304558610094E-12   1.40103206817060E-15   3.09610986203493E-16  -6.81017770206980E-18
     -2.37866351291431E-15  -5.50008679178297E-17   1.19341616291340E-15  -6.81019276333174E-18  -3.03840931016824E-13
      6.18110606809766E-17
      1.00000000000000E+04
      8.00000000000000E-01   0.00000000000000E+00  -3.17717475994513E+00   3.03840931016824E-13   1.41078816486581E-15
     -4.76046554474395E-15  -1.36217100007737E-15  -1.25744690377686E-15  -4.86171647886456E-17  -3.28486563364597E-15
     -1.36217101974711E-15   1.67112512059253E-12   1.37365577168671E-15   2.54034223885948E-16  -1.14847519375581E-17
     -2.73431437575568E-15  -4.86171451189102E-17   1.73090391867133E-15  -1.14847716072939E-17  -1.51920465508412E-13
      6.01019167253433E-17
      1.00000000000000E+04
      8.00000000000000E-01   0.00000000000000E+00  -3.67717475994513E+00   0.00000000000000E+00   1.36943852801760E-15
     -4.77670308824622E-15  -1.32653799786319E-15  -9.65485410159181E-16  -4.29005301547492E-17  -2.97589368116034E-15
     -1.32653801862010E-15   7.59602327542059E-13   1.34262914188754E-15   2.08943096273438E-16  -1.60911232641539E-17
     -2.76584463123461E-15  -4.29005093978363E-17   2.00930298863346E-15  -1.60911440210670E-17   1.51920465508412E-13
      5.89916534182804E-17
      1.00000000000000E+04
      8.00000000000000E-01   0.00000000000000E+00  -4.17717475994513E+00   0.00000000000000E+00   1.33521930212120E-15
     -4.62844870108445E-15  -1.29663086588824E-15  -7.44358624926735E-16  -3.85884362331893E-17  -2.84249836568283E-15
     -1.29663088445363E-15   1.21536372406729E-12   1.31632610801886E-15   1.85852088173477E-16  -1.96952235627455E-17
     -2.53028096447425E-15  -3.85884176678071E-17   1.97177292822666E-15  -1.96952421281281E-17  -1.51920465508412E-13
      5.82836597961118E-17
      1.00000000000000E+04
      8.00000000000000E-01   0.00000000000000E+00  -4.67717475994513E+00   1.51920465508412E-13   1.30922150709828E-15
     -4.19517232138273E-15  -1.27376122496113E-15  -5.69195838181008E-16  -3.54602821374642E-17  -2.70106236430516E-15
     -1.27376123946469E-15   1.21536372406729E-12   1.29611100735743E-15   1.65504897214012E-16  -2.23497678898844E-17
     -2.06389769585743E-15  -3.54602676339124E-17   1.66021372031683E-15  -2.23497823934367E-17   4.55761396525235E-13
      5.78100500268648E-17
      1.00000000000000E+04
      8.00000000000000E-01   0.00000000000000E+00  -5.17717475994513E+00   3.03840931016824E-13   1.28865339737804E-15
     -3.44045927454686E-15  -1.25560641128940E-15  -4.21449223291836E-16  -3.30469860889001E-17  -2.35932424322893E-15
     -1.25560642147679E-15   2.12688651711777E-12   1.28002045990516E-15   1.31137011699260E-16  -2.44140384260335E-17
     -1.50286383006691E-15  -3.30469759015079E-17   1.21255492638150E-15  -2.44140486134254E-17   3.03840931016824E-13
      5.74610245147104E-17
      1.00000000000000E+04
      8.00000000000000E-01   0.00000000000000E+00  -5.67717475994513E+00   0.00000000000000E+00   1.27124453123829E-15
     -2.71183053543066E-15  -1.24020732854537E-15  -3.10944229095007E-16  -3.10372026933035E-17  -1.97885967866814E-15
     -1.24020733558069E-15  -7.59602327542059E-13   1.26634989491668E-15   9.65793439929754E-17  -2.61425593329802E-17
     -1.04319023035150E-15  -3.10371956579838E-17   8.28826510974627E-16  -2.61425663683007E-17   0.00000000000000E+00
      5.71797620264495E-17
      1.00000000000000E+04
      8.00000000000000E-01   0.00000000000000E+00  -6.17717475994513E+00   3.03840931016824E-13   1.25570810993393E-15
     -2.21229880984579E-15  -1.22644294964839E-15  -2.40803341438955E-16  -2.92651602858965E-17  -1.70217549567752E-15
     -1.22644295485124E-15  -1.51920465508412E-13   1.25411631221826E-15   7.26014827844751E-17  -2.76733573636791E-17
     -7.51323363511298E-16  -2.92651550830424E-17   5.83119994974479E-16  -2.76733625665334E-17  -6.07681862033647E-13
      5.69385176494510E-17
      1.00000000000000E+04
      8.00000000000000E-01   0.00000000000000E+00  -6.67717475994513E+00  -1.51920465508412E-13   1.24133937457974E-15
     -1.89565396676089E-15  -1.21369648197322E-15  -1.96646307425682E-16  -2.76428926067771E-17  -1.51656382210160E-15
     -1.21369648613538E-15  -1.21536372406729E-12   1.24277676339977E-15   5.68244779229788E-17  -2.90802772614576E-17
     -5.76130515915431E-16  -2.76428884446092E-17   4.36312454880493E-16  -2.90802814236252E-17   4.55761396525235E-13
      5.67231698683039E-17
      1.00000000000000E+04
      8.00000000000000E-01   0.00000000000000E+00  -7.17717475994513E+00   3.03840931016824E-13   1.22772309435381E-15
     -1.68461081731044E-15  -1.20160282870553E-15  -1.66227760768323E-16  -2.61202656485534E-17  -1.38379876763613E-15
     -1.20160283222992E-15   3.34225024118506E-12   1.23200853261429E-15   4.55133054618471E-17  -3.04057003807746E-17
     -4.66234087311815E-16  -2.61202621241641E-17   3.45520931944553E-16  -3.04057039051635E-17   1.51920465508412E-13
      5.65259660294824E-17
      1.00000000000000E+04
      8.00000000000000E-01   0.00000000000000E+00  -7.67717475994513E+00   3.03840931016824E-13   1.21458478846718E-15
     -1.53149880293901E-15  -1.18991888903639E-15  -1.43039479999628E-16  -2.46658994310122E-17  -1.28163218490528E-15
     -1.18991889213477E-15   7.59602327542059E-13   1.22159530309609E-15   3.65549299801985E-17  -3.16764109576402E-17
     -3.93083929662426E-16  -2.46658963326417E-17   2.86594898656403E-16  -3.16764140560108E-17  -1.51920465508412E-13
      5.63423103880499E-17
      1.00000000000000E+04
      8.00000000000000E-01   0.00000000000000E+00  -8.17717475994513E+00   3.03840931016824E-13   1.20171682030986E-15
     -1.41606277820714E-15  -1.17845876119465E-15  -1.24221102641465E-16  -2.32580591154799E-17  -1.19733088943394E-15
     -1.17845876398866E-15   2.73456837915141E-12   1.21136999031036E-15   2.89239931586141E-17  -3.29112263188346E-17
     -3.42561464979419E-16  -2.32580563214793E-17   2.47277595136365E-16  -3.29112291128354E-17  -1.51920465508412E-13
      5.61692854331808E-17
      1.00000000000000E+04
      8.00000000000000E-01   0.00000000000000E+00  -8.67717475994513E+00   3.03840931016824E-13   1.18893715774592E-15
     -1.32175360202881E-15  -1.16705732597480E-15  -1.08427346066134E-16  -2.18798317712302E-17  -1.12496749836683E-15
     -1.16705732853795E-15   1.21536372406729E-12   1.20118239426012E-15   2.20883708524537E-17  -3.41250657195694E-17
     -3.06287334291392E-16  -2.18798292080768E-17   2.19938746846632E-16  -3.41250682827227E-17  -1.51920465508412E-13
      5.60048974909421E-17
      1.00000000000000E+04
      8.00000000000000E-01   0.00000000000000E+00  -9.17717475994513E+00  -1.51920465508412E-13   1.17606092985004E-15
     -1.24318701553313E-15  -1.15554481981866E-15  -9.49123070208774E-17  -2.05161100314847E-17  -1.06055033627286E-15
     -1.15554482219660E-15   6.07681862033647E-13   1.19087635058911E-15   1.57280671131048E-17  -3.53315283889359E-17
     -2.78702789113509E-16  -2.05161076535404E-17   1.99503936877727E-16  -3.53315307668801E-17   3.03840931016824E-13
      5.58476384199547E-17
      1.00000000000000E+04
      8.00000000000000E-01   0.00000000000000E+00  -9.67717475994513E+00   3.03840931016824E-13   1.16287614022745E-15
     -1.17432030876602E-15  -1.14372473013145E-15  -8.34406734707028E-17  -1.91514100962109E-17  -1.00170613400173E-15
     -1.14372473235557E-15   1.82304558610094E-12   1.18026953299942E-15   9.52493311428541E-18  -3.65448006413799E-17
     -2.57561578488352E-16  -1.91514078720894E-17   1.83654070933439E-16  -3.65448028655016E-17  -3.03840931016824E-13
      5.56962107373005E-17
      1.00000000000000E+04
      8.00000000000000E-01   0.00000000000000E+00  -1.01771747599451E+01   3.03840931016824E-13   1.14912109922952E-15
     -1.11434918518613E-15  -1.13135280969842E-15  -7.39998799552601E-17  -1.77682895313243E-17  -9.47205719629852E-16
     -1.13135281179197E-15   1.51920465508412E-13   1.16913389229366E-15   2.79758148389613E-18  -3.77810804990977E-17
     -2.42392496876787E-16  -1.77682874377747E-17   1.71182562347982E-16  -3.77810825926474E-17   1.51920465508412E-13
      5.55493700294972E-17
      1.00000000000000E+04
      8.00000000000000E-01   0.00000000000000E+00  -1.06771747599451E+01   1.51920465508412E-13   1.13446837651349E-15
     -1.06064906591214E-15  -1.11812159704744E-15  -6.61470131253326E-17  -1.63467794662648E-17  -8.98156993374060E-16
     -1.11812159901652E-15   1.36728418957571E-12   1.15718072182271E-15  -6.54112498459479E-18  -3.90591228024545E-17
     -2.28918001578434E-16  -1.63467774971824E-17   1.56220686262788E-16  -3.90591247715369E-17  -3.03840931016824E-13
      5.54059022680240E-17
      1.00000000000000E+04
      8.00000000000000E-01   0.00000000000000E+00  -1.11771747599451E+01   3.03840931016824E-13   1.11853674152298E-15
     -1.00762619187630E-15  -1.10367026107049E-15  -5.92152303438168E-17  -1.48664804527367E-17  -8.61586110760376E-16
     -1.10367026288548E-15   2.27880698262618E-12   1.14406862643593E-15  -2.55792928863707E-17  -4.03983635467748E-17
     -2.05778830762603E-16  -1.48664786377557E-17   1.20985066221685E-16  -4.03983653617559E-17   1.51920465508412E-13
      5.52648439991719E-17
      1.00000000000000E+04
      8.00000000000000E-01   0.00000000000000E+00  -1.16771747599451E+01  -1.51920465508412E-13   1.10099000205422E-15
     -9.55322565083470E-16  -1.08767460977651E-15  -5.28735124779475E-17  -1.33153922779830E-17  -8.62987090270115E-16
     -1.08767461133085E-15  -7.59602327542059E-13   1.12948542048154E-15  -7.83556381097204E-17  -4.18108091484191E-17
     -1.46149449288028E-16  -1.33153907236501E-17   1.49144259783704E-17  -4.18108107027520E-17   4.55761396525235E-13
      5.51262014262489E-17
      1.00000000000000E+04
      8.00000000000000E-01   0.00000000000000E+00  -1.21771747599451E+01   3.03840931016824E-13   1.08182882848398E-15
     -9.04315703562073E-16  -1.07011720205209E-15  -4.69593719101953E-17  -1.17116264320865E-17  -9.76457521449163E-16
     -1.07011720304475E-15  -6.07681862033647E-13   1.11339804828679E-15  -2.46026991243335E-16  -4.32808452402051E-17
      2.55764813464694E-17  -1.17116254394355E-17  -3.18559493507142E-16  -4.32808462328561E-17   0.00000000000000E+00
      5.49924716710139E-17
      1.00000000000000E+04
      8.00000000000000E-01   0.00000000000000E+00  -1.26771747599451E+01  -3.03840931016824E-13   1.06189896962702E-15
     -8.54131048061093E-16  -1.05176360991838E-15  -4.14407587395971E-17  -1.01353597088429E-17  -1.41760862425286E-15
     -1.05176360955245E-15   9.11522793050471E-13   1.09649870970935E-15  -7.99713626060533E-16  -4.47351001542601E-17
      5.22147924211464E-16  -1.01353600747739E-17  -1.36329392900364E-15  -4.47350997883290E-17  -3.03840931016824E-13
      5.48704598627886E-17
      1.00000000000000E+04
      8.00000000000000E-01   0.00000000000000E+00  -1.31771747599451E+01   0.00000000000000E+00   1.04314273078456E-15
     -8.08735175339978E-16  -1.03440962353226E-15  -3.63705563244517E-17  -8.73310725248762E-18  -2.78112018100785E-15
     -1.03440961973204E-15   9.11522793050471E-13   1.08044701699747E-15  -2.61795907250852E-15  -4.60373972623002E-17
      1.93587944379971E-15  -8.73311105270961E-18  -4.59021167477271E-15  -4.60373934620782E-17   1.51920465508412E-13
      5.47705045147399E-17
      1.00000000000000E+04
      8.00000000000000E-01   0.00000000000000E+00  -1.36771747599451E+01   1.51920465508412E-13   1.02772858192165E-15
     -7.70441712481244E-16  -1.02008617010746E-15  -3.16649391455583E-17  -7.64241181445644E-18  -6.75246234466545E-15
     -1.02008615730756E-15   1.06344325855888E-12   1.06714407659964E-15  -8.44922122167820E-15  -4.70579192890216E-17
      5.95107188584574E-15  -7.64242461435489E-18  -1.44319605325267E-14  -4.70579064891232E-17   0.00000000000000E+00
      5.47003311032700E-17
      1.00000000000000E+04
      8.00000000000000E-01   0.00000000000000E+00  -1.41771747599451E+01   1.51920465508412E-13   1.01657746595664E-15
     -7.34812782159961E-16  -1.00968276256690E-15  -2.69507761110297E-17  -6.89470338998942E-18  -1.81839670507633E-14
     -1.00968272535686E-15   9.11522793050471E-13   1.05744707791283E-15  -2.65677880834484E-14  -4.77643525531284E-17
      1.74219050717982E-14  -6.89474060003303E-18  -4.40166544529202E-14  -4.77643153430849E-17   1.51920465508412E-13
      5.46590559430753E-17
      1.00000000000000E+04
      8.00000000000000E-01   0.00000000000000E+00  -1.46771747599451E+01   3.03840931016824E-13   1.00912216021399E-15
     -7.03205925791994E-16  -1.00270206957442E-15  -2.16416395687646E-17  -6.42009063978734E-18  -5.08395329625199E-14
     -1.00270196519663E-15   7.59602327542059E-13   1.05092111098428E-15  -8.09122456395906E-14  -4.82191457839502E-17
      5.01149115163667E-14  -6.42019501757751E-18  -1.31048836064903E-13  -4.82190414061603E-17   0.00000000000000E+00
      5.46392364232192E-17
      1.00000000000000E+04
      8.00000000000000E-01   0.00000000000000E+00  -1.51771747599451E+01  -3.03840931016824E-13   1.00423237899015E-15
     -6.70925555465987E-16  -9.98109293884016E-16  -1.49034833527427E-17  -6.12308510629187E-18  -1.42487418625844E-13
     -9.98109006277916E-16  -4.55761396525235E-13   1.04661873453799E-15  -2.37972418184165E-13  -4.85097282563748E-17
      1.41800933051766E-13  -6.12337271239186E-18  -3.79788266527442E-13  -4.85094406502750E-17   1.51920465508412E-13
      5.46328133618154E-17
      1.00000000000000E+04
      8.00000000000000E-01   0.00000000000000E+00  -1.56771747599451E+01   1.51920465508412E-13   1.00093869846294E-15
     -6.42777131733583E-16  -9.95008473112538E-16  -5.23790770237509E-18  -5.93022535062701E-18  -3.92837956259868E-13
     -9.95007697274490E-16   3.19032977567665E-12   1.04371145535912E-15  -6.74797111192632E-13  -4.87037580820267E-17
      3.92190001281079E-13  -5.93100118867788E-18  -1.06699237243757E-12  -4.87029822439759E-17   7.59602327542059E-13
      5.46339834323800E-17
      1.00000000000000E+04
      8.00000000000000E-01   0.00000000000000E+00  -1.61771747599451E+01   3.03840931016824E-13   9.98603980824111E-16
     -6.22917323866060E-16  -9.92807707474166E-16   1.05604710579229E-17  -5.79627335011705E-18  -1.05444753391710E-12
     -9.92805671020867E-16   3.49417070669347E-12   1.04164830231335E-15  -1.84256185505292E-12  -4.88426312894659E-17
      1.05383523229137E-12  -5.79830980341777E-18  -2.89638653820508E-12  -4.88405948361652E-17   1.21536372406729E-12
      5.46389046385290E-17
      1.00000000000000E+04
      8.00000000000000E-01   0.00000000000000E+00  -1.66771747599451E+01  -4.55761396525235E-13   9.96851033693591E-16
     -6.24767478220489E-16  -9.91155361666809E-16   3.96519477552163E-17  -5.69567202709507E-18  -2.73932110680722E-12
     -9.91150185921969E-16   9.41906886152153E-12   1.04009879107291E-15  -4.83909608451096E-12  -4.89486051484822E-17
      2.73873558660344E-12  -5.70084777193632E-18  -7.57779203712723E-12  -4.89434294036411E-17   5.01337536177759E-12
      5.46442771748871E-17
      1.00000000000000E+04
      8.00000000000000E-01   0.00000000000000E+00  -1.71771747599451E+01   3.03840931016824E-13   9.95463225405413E-16
     -6.74460055373505E-16  -9.89849104365219E-16   9.73101980764137E-17  -5.61412104046273E-18  -6.86141170640350E-12
     -9.89836414502581E-16   1.99015809816019E-11   1.03886777710271E-15  -1.22073212294372E-11  -4.90313625970261E-17
      6.86083327878728E-12  -5.62681090309760E-18  -1.90680571992898E-11  -4.90186727343913E-17   1.32170804992318E-11
      5.46454836374889E-17
      1.00000000000000E+04
      8.00000000000000E-01   0.00000000000000E+00  -1.76771747599451E+01  -1.51920465508412E-13   9.94315412809414E-16
     -8.22247351950080E-16  -9.88772246149803E-16   2.12944197890768E-16  -5.54316665982839E-18  -1.65209683749520E-11
     -9.88742326945015E-16   4.49684577904899E-11   1.03783306979830E-15  -2.95296263279029E-11  -4.90907428493864E-17
      1.65203588077878E-11  -5.57308586461695E-18  -4.60497721954122E-11  -4.90608236445978E-17   2.99283317051571E-11
      5.46339095086591E-17
      1.00000000000000E+04
      8.00000000000000E-01   0.00000000000000E+00  -1.81771747599451E+01   0.00000000000000E+00   9.93333804770571E-16
     -1.14007319361760E-15  -9.87856754270060E-16   4.33487545793391E-16  -5.47705050064902E-18  -3.81259162150652E-11
     -9.87789143015718E-16   1.06648166786905E-10   1.03690480652046E-15  -6.83425037677052E-11  -4.91156635018603E-17
      3.81252090401493E-11  -5.54466175499255E-18  -1.06467279327165E-10  -4.90480522475166E-17   6.83642094787853E-11
      5.45927140025222E-17
      1.00000000000000E+04
      8.00000000000000E-01   0.00000000000000E+00  -1.86771747599451E+01   3.03840931016824E-13   9.92474072483177E-16
     -1.70836625550823E-15  -9.87063272255241E-16   8.07222631602422E-16  -5.41080022820893E-18  -8.40324065022112E-11
     -9.86917420148809E-16   2.36540164796597E-10   1.03599720905398E-15  -1.50852884825610E-10  -4.90797889028373E-17
      8.40315055249680E-11  -5.55665233463898E-18  -2.34883583118033E-10  -4.89339367964072E-17   1.50553181318836E-10
      5.44905891300219E-17
      1.00000000000000E+04
      8.00000000000000E-01   0.00000000000000E+00  -1.91771747599451E+01   0.00000000000000E+00   9.91709637088475E-16
     -2.51187921858328E-15  -9.86370649500892E-16   1.32259854574805E-15  -5.33898758785851E-18  -1.76105567926402E-10
     -9.86071879826339E-16   4.91310785454204E-10   1.03500741172280E-15  -3.16207625677608E-10  -4.89355318924294E-17
      1.76104377669623E-10  -5.63775726241049E-18  -4.92310680738045E-10  -4.86367622178774E-17   3.16146488723005E-10
      5.42745194795830E-17
      1.00000000000000E+04
      8.00000000000000E-01   0.00000000000000E+00  -1.96771747599451E+01  -3.03840931016824E-13   9.91025284498340E-16
     -3.34020364701500E-15  -9.85770203630579E-16   1.83639571021256E-15  -5.25508086808064E-18  -3.48938437789477E-10
     -9.85192987500978E-16   9.75329388564004E-10   1.03380410470050E-15  -6.25907723223422E-10  -4.86111171974335E-17
      3.48936934683054E-10  -5.83229699768231E-18  -9.74842821513512E-10  -4.80339010678317E-17   6.25912317894657E-10
      5.38661980656631E-17
      1.00000000000000E+04
      8.00000000000000E-01   0.00000000000000E+00  -2.01771747599451E+01  -4.55761396525235E-13   9.90413220619779E-16
     -3.86964503245577E-15  -9.85261456019809E-16   2.14132773959954E-15  -5.15176460023984E-18  -6.49464360377054E-10
     -9.84217984298337E-16   1.81165155118781E-09   1.03223805645037E-15  -1.16233543274784E-09  -4.80200721491107E-17
      6.49462632382002E-10  -6.19523632171345E-18  -1.81179592382334E-09  -4.69766004276356E-17   1.16188772020833E-09
      5.31718367489363E-17
      1.00000000000000E+04
      8.00000000000000E-01   0.00000000000000E+00  -2.06771747599451E+01  -3.03840931016824E-13   9.89869808787524E-16
     -3.97702064451363E-15  -9.84847124281885E-16   2.16306734431052E-15  -5.02268450588895E-18  -1.12852797577884E-09
     -9.83095327311467E-16   3.13974026066235E-09   1.03018758744305E-15  -2.01247759247757E-09  -4.70922601287288E-17
      1.12852616134188E-09  -6.77448147630551E-18  -3.14100159075466E-09  -4.53404631583094E-17   2.01294616798646E-09
      5.21149446344121E-17
      1.00000000000000E+04
      8.00000000000000E-01   0.00000000000000E+00  -2.11771747599451E+01  -4.55761396525235E-13   9.89392308509792E-16
     -3.77687804951340E-15  -9.84527036350285E-16   1.98621682695979E-15  -4.86527215975452E-18  -1.82355103353137E-09
     -9.81808720978754E-16   5.06062262655071E-09   1.02762836507855E-15  -3.23594861584504E-09  -4.58196440965573E-17
      1.82354924394582E-09  -7.58358753128732E-18  -5.05949587358956E-09  -4.31013287250218E-17   3.23605783579468E-09
      5.06849162571824E-17
      1.00000000000000E+04
      8.00000000000000E-01   0.00000000000000E+00  -2.16771747599451E+01  -1.51920465508412E-13   9.88976204646820E-16
     -3.42310652338439E-15  -9.84293339555099E-16   1.72302485196676E-15  -4.68286509201158E-18  -2.74064501920788E-09
     -9.80392827493501E-16   7.57110831907721E-09   1.02467670472176E-15  -4.83346218088290E-09  -4.42838772264440E-17
      2.74064331906039E-09  -8.58337715360591E-18  -7.57410377689593E-09  -4.03833651648520E-17   4.83274192828809E-09
      4.89667423187302E-17
      1.00000000000000E+04
      8.00000000000000E-01   0.00000000000000E+00  -2.21771747599451E+01  -1.51920465508412E-13   9.88614272482971E-16
     -3.05115090888886E-15  -9.84130143521851E-16   1.45738549563243E-15  -4.48412896130616E-18  -3.84969530048228E-09
     -9.78922480991111E-16   1.05908314119879E-08   1.02155638049490E-15  -6.74047336277236E-09  -4.26338994999589E-17
      3.84969370621997E-09  -9.69179149204719E-18  -1.05901656116160E-08  -3.74262369692142E-17   6.74071105460823E-09
      4.71180284613724E-17
      1.00000000000000E+04
      8.00000000000000E-01   0.00000000000000E+00  -2.26771747599451E+01   1.51920465508412E-13   9.88297555445682E-16
     -2.74296032587264E-15  -9.84017625793683E-16   1.23687028155400E-15  -4.27992965242600E-18  -5.09666105878587E-09
     -9.77480821321177E-16   1.39484256201893E-08   1.01850708116961E-15  -8.85231677999607E-09  -4.10262598449974E-17
      5.09665955296779E-09  -1.08167341249298E-17  -1.39489750960692E-08  -3.44894553724986E-17   8.85255744564066E-09
      4.53061894973947E-17
      1.00000000000000E+04
      8.00000000000000E-01   0.00000000000000E+00  -2.31771747599451E+01   3.03840931016824E-13   9.88017096547024E-16
     -2.51524216741120E-15  -9.83937168722497E-16   1.06989311115570E-15  -4.07992782487026E-18  -6.42296309660095E-09
     -9.76130786527009E-16   1.74822475683805E-08   1.01570511435349E-15  -1.10607387883312E-08  -3.95743278237260E-17
      6.42296165132784E-09  -1.18863100203546E-17  -1.74836993697431E-08  -3.17679456282446E-17   1.10608733322709E-08
      4.36542556478921E-17
      1.00000000000000E+04
      8.00000000000000E-01   0.00000000000000E+00  -2.36771747599451E+01  -1.51920465508412E-13   9.87765192354838E-16
     -2.34595278751510E-15  -9.83874424115923E-16   9.42382533733743E-16  -3.89076823938626E-18  -7.77962391815267E-09
     -9.74905221364374E-16   2.10601264515691E-08   1.01323839332836E-15  -1.32790499112451E-08  -3.83331719597936E-17
      7.77962251472161E-09  -1.28599709909405E-17  -2.10586714836186E-08  -2.93639692082304E-17   1.32787602082282E-08
      4.22239401989506E-17
      1.00000000000000E+04
      8.00000000000000E-01   0.00000000000000E+00  -2.41771747599451E+01  -1.51920465508412E-13   9.87535812121274E-16
     -2.20163791184959E-15  -9.83819834598003E-16   8.37808445106439E-16  -3.71597752363984E-18  -9.13226290129641E-09
     -9.73811970923257E-16   2.45840735695022E-08   1.01112354445628E-15  -1.54496972058320E-08  -3.73115735300434E-17
      9.13226153633468E-09  -1.37238411983839E-17  -2.45819579043786E-08  -2.73037098552878E-17   1.54500075012745E-08
      4.10275510536286E-17
      1.00000000000000E+04
      8.00000000000000E-01   0.00000000000000E+00  -2.46771747599451E+01   3.03840931016824E-13   9.87324459034188E-16
     -2.06784584225403E-15  -9.83767730201638E-16   7.45884510934922E-16  -3.55672883284252E-18  -1.04598540800067E-08
     -9.72843777129926E-16   2.79981821908728E-08   1.00933544167705E-15  -1.75405115606194E-08  -3.64916645449559E-17
      1.04598527580403E-08  -1.44806819045490E-17  -2.80003635727674E-08  -2.55677114732426E-17   1.75401292657392E-08
      4.00483933771427E-17
      1.00000000000000E+04
      8.00000000000000E-01   0.00000000000000E+00  -2.51771747599451E+01   0.00000000000000E+00   9.87127831584485E-16
     -1.93432470190421E-15  -9.83715096115800E-16   6.62427880201064E-16  -3.41273546900720E-18  -1.17512101905119E-08
     -9.71986603466502E-16   3.12860449054058E-08   1.00783125941959E-15  -1.95372820564940E-08  -3.58446559495191E-17
      1.17512089183141E-08  -1.51412281183031E-17  -3.12884903123974E-08  -2.41161633002082E-17   1.95372757053128E-08
      3.92573914188149E-17
      1.00000000000000E+04
      8.00000000000000E-01   0.00000000000000E+00  -2.56771747599451E+01   3.03840931016824E-13   9.86943490018247E-16
     -1.80552881687165E-15  -9.83660543041633E-16   5.86568000288926E-16  -3.28294697686039E-18  -1.30015274859278E-08
     -9.71224771539937E-16   3.44396099284294E-08   1.00656492442362E-15  -2.14369196368426E-08  -3.53401528798510E-17
      1.30015262686690E-08  -1.57187184785529E-17  -3.44384453189381E-08  -2.29043813781494E-17   2.14367372855644E-08
      3.86230998569766E-17
      1.00000000000000E+04
      8.00000000000000E-01   0.00000000000000E+00  -2.61771747599451E+01   3.03840931016824E-13   9.86769596649101E-16
     -1.67997403507371E-15  -9.83603598894555E-16   5.18475434784929E-16  -3.16599775491750E-18  -1.42097860750632E-08
     -9.70543519472408E-16   3.74523446799267E-08   1.00549405634675E-15  -2.32425112828665E-08  -3.49505368716109E-17
      1.42097849146970E-08  -1.62260771770663E-17  -3.74522956791239E-08  -2.18904574494388E-17   2.32424639385974E-08
      3.81165346266275E-17
      1.00000000000000E+04