DF-ISE text

Info {
  version   = 1.0
  type      = xyplot
  datasets  = [
    "frequency"
    "v(Ntop)" "v(Ptop)" "v(Pbot)" "a(Ntop,Ntop)" "c(Ntop,Ntop)"
    "a(Ntop,Ptop)" "c(Ntop,Ptop)" "a(Ntop,Pbot)" "c(Ntop,Pbot)" "a(Ptop,Ntop)"
    "c(Ptop,Ntop)" "a(Ptop,Ptop)" "c(Ptop,Ptop)" "a(Ptop,Pbot)" "c(Ptop,Pbot)"
    "a(Pbot,Ntop)" "c(Pbot,Ntop)" "a(Pbot,Ptop)" "c(Pbot,Ptop)" "a(Pbot,Pbot)"
    "c(Pbot,Pbot)" ]
  functions = [
    Frequency
    Voltage Voltage Voltage Admittance Capacitance
    Admittance Capacitance Admittance Capacitance Admittance
    Capacitance Admittance Capacitance Admittance Capacitance
    Admittance Capacitance Admittance Capacitance Admittance
    Capacitance ]
}

Data {
      1.00000000000000E+04
      8.00000000000000E-01   0.00000000000000E+00  -5.00000000000000E-02   3.03840931016824E-13   3.97122479593888E-15
     -8.90375273064814E-15  -3.86604206702662E-15  -5.59128423448700E-15  -1.05182728913994E-16  -8.91828826695434E-15
     -3.86604208561254E-15  -7.59602327542059E-13   3.86605674818361E-15   1.41499028496795E-15  -1.46625653944610E-20
     -5.57685521644974E-15  -1.05182710328132E-16   1.40056899035002E-15  -1.46811512752642E-20  -6.07681862033647E-13
      1.05197391479064E-16
      1.00000000000000E+04
      8.00000000000000E-01   0.00000000000000E+00  -1.45555555555556E-01   3.03840931016824E-13   3.96707797955856E-15
     -8.84508273534822E-15  -3.86602598218739E-15  -5.28443634276649E-15  -1.01051997372481E-16  -8.86181616711464E-15
     -3.86602600132594E-15  -1.06344325855888E-12   3.86604646805780E-15   1.35977143726604E-15  -2.04667273372186E-20
     -5.27129479051998E-15  -1.01051978233978E-16   1.34663827221801E-15  -2.04858658612369E-20  -3.03840931016824E-13
      1.01072464100333E-16
      1.00000000000000E+04
      8.00000000000000E-01   0.00000000000000E+00  -3.28172839506173E-01   3.03840931016824E-13   3.96033892954997E-15
     -8.75847948126112E-15  -3.86597700803004E-15  -4.80383331110230E-15  -9.43619215214058E-17  -8.77130751314288E-15
     -3.86597702806120E-15  -3.03840931016824E-13   3.86601458143221E-15   1.27045878443142E-15  -3.75533660218721E-20
     -4.79407268032326E-15  -9.43619014902854E-17   1.26070674498970E-15  -3.75733971586654E-20   3.03840931016824E-13
      9.43994748875258E-17
      1.00000000000000E+04
      8.00000000000000E-01   0.00000000000000E+00  -6.77174759945130E-01   3.03840931016824E-13   3.95035176868734E-15
     -8.63943340241785E-15  -3.86575876657370E-15  -4.15349922189851E-15  -8.45930021155197E-17  -8.63598353235547E-15
     -3.86575878793843E-15  -1.36728418957571E-12   3.86586791293571E-15   1.14046611681715E-15  -1.09124991478883E-19
     -4.15583856605211E-15  -8.45929807508560E-17   1.14281242474424E-15  -1.09146356153769E-19  -1.51920465508412E-13
      8.47021271066391E-17
      1.00000000000000E+04
      8.00000000000000E-01   0.00000000000000E+00  -1.17717475994513E+00   3.03840931016824E-13   3.93933107384643E-15
     -8.53942323189380E-15  -3.86470609779305E-15  -3.51386821827446E-15  -7.46249760549391E-17  -8.48949814396143E-15
     -3.86470612080401E-15   1.21536372406729E-12   3.86512859538191E-15   1.00843586507610E-15  -4.22474573094517E-19
     -3.56454620141440E-15  -7.46249530439492E-17   1.05911861842192E-15  -4.22497584083933E-19   1.51920465508412E-13
      7.50474506272393E-17
      1.00000000000000E+04
      8.00000000000000E-01   0.00000000000000E+00  -1.67717475994513E+00   3.03840931016824E-13   3.92831865072855E-15
     -8.53841227860865E-15  -3.86116860582504E-15  -3.01048368378751E-15  -6.71500449050138E-17  -8.34808701951725E-15
     -3.86116863104331E-15  -9.11522793050471E-13   3.86250666755233E-15   9.07726435665920E-16  -1.33803650420989E-18
     -3.19957261844639E-15  -6.71500196867824E-17   1.09681281187746E-15  -1.33806172244458E-18  -3.03840931016824E-13
      6.84880814097660E-17
      1.00000000000000E+04
      8.00000000000000E-01   0.00000000000000E+00  -2.17717475994513E+00   3.03840931016824E-13   3.91260173900694E-15
     -8.56249738109224E-15  -3.85158661205892E-15  -2.46569631896265E-15  -6.10151269495481E-17  -8.09254904253818E-15
     -3.85158664063342E-15   7.59602327542059E-13   3.85495366555356E-15   8.17098634971991E-16  -3.36702491615071E-18
     -2.93439594592957E-15  -6.10150983750450E-17   1.28579897016846E-15  -3.36705349065354E-18  -3.03840931016824E-13
      6.43821518652712E-17
      1.00000000000000E+04
      8.00000000000000E-01   0.00000000000000E+00  -2.67717475994513E+00   3.03840931016824E-13   3.88590842376586E-15
     -8.44531152272994E-15  -3.83103019771865E-15  -1.94170433273111E-15  -5.48782260483366E-17  -7.54054608721629E-15
     -3.83103023041614E-15   4.55761396525235E-13   3.83794736875441E-15   7.09381628631522E-16  -6.91713833344459E-18
     -2.84030700397489E-15  -5.48781933508868E-17   1.60797894827024E-15  -6.91717103089505E-18   1.51920465508412E-13
      6.17953643824746E-17
      1.00000000000000E+04
      8.00000000000000E-01   0.00000000000000E+00  -3.17717475994513E+00   3.03840931016824E-13   3.84669415497815E-15
     -8.17262570304291E-15  -3.79828468362937E-15  -1.62304899554990E-15  -4.84094713500671E-17  -6.66858126136108E-15
     -3.79828472091141E-15   1.97496605160935E-12   3.80995510177593E-15   5.82616668682222E-16  -1.16703808596007E-17
     -3.12477267923526E-15  -4.84094340679884E-17   2.08432979215800E-15  -1.16704181416753E-17  -3.03840931016824E-13
      6.00798522098720E-17
      1.00000000000000E+04
      8.00000000000000E-01   0.00000000000000E+00  -3.67717475994513E+00   3.03840931016824E-13   3.80449136103305E-15
     -7.65134605834096E-15  -3.76187608985143E-15  -1.26026243238862E-15  -4.26152711829705E-17  -5.82505958649125E-15
     -3.76187612736913E-15   1.51920465508412E-13   3.77822619470976E-15   4.74983066899411E-16  -1.63500673361620E-17
     -3.08936517651047E-15  -4.26152336652702E-17   2.30409022439745E-15  -1.63501048538649E-17  -1.51920465508412E-13
      5.89653385188606E-17
      1.00000000000000E+04
      8.00000000000000E-01   0.00000000000000E+00  -4.17717475994513E+00   3.03840931016824E-13   3.76947888707795E-15
     -7.09816754175344E-15  -3.73123732725172E-15  -9.88483760370600E-16  -3.82415598277103E-17  -5.28454728538167E-15
     -3.73123736129026E-15   1.21536372406729E-12   3.75125060431455E-15   4.07515652592674E-16  -2.00132430196930E-17
     -2.79877118656661E-15  -3.82415257891987E-17   2.21780137792819E-15  -2.00132770582047E-17   1.51920465508412E-13
      5.82548028464002E-17
      1.00000000000000E+04
      8.00000000000000E-01   0.00000000000000E+00  -4.67717475994513E+00   3.03840931016824E-13   3.74267922958785E-15
     -6.36052280456955E-15  -3.70762329629759E-15  -7.78548646398508E-16  -3.50559332913586E-17  -4.85089964733691E-15
     -3.70762332485130E-15  -3.03840931016824E-13   3.73034617673405E-15   3.56580625979601E-16  -2.27228518783949E-17
     -2.28892537918401E-15  -3.50559047376291E-17   1.86696346859866E-15  -2.27228804321235E-17  -1.51920465508412E-13
      5.77787851696166E-17
      1.00000000000000E+04
      8.00000000000000E-01   0.00000000000000E+00  -5.17717475994513E+00   3.03840931016824E-13   3.72123364080038E-15
     -5.37894543335537E-15  -3.68865231857599E-15  -6.05449938282057E-16  -3.25813222257756E-17  -4.28869272600414E-15
     -3.68865234148502E-15  -3.03840931016824E-13   3.71349783685999E-15   2.99718782188837E-16  -2.48454953700791E-17
     -1.69556032862207E-15  -3.25812993167398E-17   1.38982931944697E-15  -2.48455182791149E-17  -1.51920465508412E-13
      5.74268175959049E-17
      1.00000000000000E+04
      8.00000000000000E-01   0.00000000000000E+00  -5.67717475994513E+00   3.03840931016824E-13   3.70284038460823E-15
     -4.47300067445506E-15  -3.67233699908220E-15  -4.75836625929591E-16  -3.05033855270156E-17  -3.73434796952032E-15
     -3.67233701781475E-15   7.59602327542059E-13   3.69897559329344E-15   2.47853356169054E-16  -2.66385754739107E-17
     -1.21489975860858E-15  -3.05033667944764E-17   9.86924235809414E-16  -2.66385942064509E-17  -3.03840931016824E-13
      5.71419610005623E-17
      1.00000000000000E+04
      8.00000000000000E-01   0.00000000000000E+00  -6.17717475994513E+00   3.03840931016824E-13   3.68619029289493E-15
     -3.83338811307375E-15  -3.65753562910240E-15  -3.90178993484704E-16  -2.86546637936706E-17  -3.31237582037509E-15
     -3.65753564527748E-15  -1.06344325855888E-12   3.68577742527802E-15   2.09659763304231E-16  -2.82417799953494E-17
     -9.07937705218696E-16  -2.86546476186102E-17   7.27417424561308E-16  -2.82417961704105E-17  -1.51920465508412E-13
      5.68964437887119E-17
      1.00000000000000E+04
      8.00000000000000E-01   0.00000000000000E+00  -6.67717475994513E+00   3.03840931016824E-13   3.67055104366509E-15
     -3.38804005721976E-15  -3.64360575380512E-15  -3.32604067968448E-16  -2.69452898608350E-17  -3.00322666884516E-15
     -3.64360576840903E-15  -1.97496605160935E-12   3.67333655536333E-15   1.81563343311893E-16  -2.97307869494413E-17
     -7.20120368505861E-16  -2.69452752569213E-17   5.69067782054140E-16  -2.97308015533562E-17   4.55761396525235E-13
      5.66760768097970E-17
      1.00000000000000E+04
      8.00000000000000E-01   0.00000000000000E+00  -7.17717475994513E+00   3.03840931016824E-13   3.65546696198850E-15
     -3.06269691222137E-15  -3.63014458175097E-15  -2.90204774047853E-16  -2.53223802389979E-17  -2.75662053576410E-15
     -3.63014459530748E-15   0.00000000000000E+00   3.66129517998250E-15   1.59238113798045E-16  -3.11505846712421E-17
     -5.99112095593504E-16  -2.53223666824580E-17   4.68147027216460E-16  -3.11505982277817E-17  -1.51920465508412E-13
      5.64729649099017E-17
      1.00000000000000E+04
      8.00000000000000E-01   0.00000000000000E+00  -7.67717475994513E+00   3.03840931016824E-13   3.64060159837527E-15
     -2.81390102604343E-15  -3.61685124009365E-15  -2.56102492374314E-16  -2.37503582827451E-17  -2.55166994796595E-15
     -3.61685125289695E-15   1.82304558610094E-12   3.64938316021936E-15   1.40212686339300E-16  -3.25319073170135E-17
     -5.16170086059250E-16  -2.37503454794194E-17   4.00280064742532E-16  -3.25319201203362E-17  -1.51920465508412E-13
      5.62822655991968E-17
      1.00000000000000E+04
      8.00000000000000E-01   0.00000000000000E+00  -8.17717475994513E+00   3.03840931016824E-13   3.62565022644429E-15
     -2.60115566313294E-15  -3.60344929229306E-15  -2.27133368325452E-16  -2.22009341527045E-17  -2.36866674780983E-15
     -3.60344930452660E-15   1.51920465508412E-13   3.63734902762840E-15   1.23178076694222E-16  -3.38997230966616E-17
     -4.57043704579339E-16  -2.22009219191778E-17   3.53079506170284E-16  -3.38997353301886E-17  -4.55761396525235E-13
      5.61006572489210E-17
      1.00000000000000E+04
      8.00000000000000E-01   0.00000000000000E+00  -8.67717475994513E+00   3.03840931016824E-13   3.61027592027995E-15
     -2.41483292804406E-15  -3.58962913748105E-15  -2.01607967401483E-16  -2.06467828004527E-17  -2.20194251487565E-15
     -3.58962914926428E-15   7.59602327542059E-13   3.62490785892133E-15   1.07317894192140E-16  -3.52787096526984E-17
     -4.12945550787063E-16  -2.06467710172335E-17   3.18628852901633E-16  -3.52787214359182E-17  -4.55761396525235E-13
      5.59254924537566E-17
      1.00000000000000E+04
      8.00000000000000E-01   0.00000000000000E+00  -9.17717475994513E+00   3.03840931016824E-13   3.59404390372953E-15
     -2.23756730907476E-15  -3.57498775619116E-15  -1.78458509743138E-16  -1.90561475394902E-17  -2.03972157531427E-15
     -3.57498776760062E-15   4.55761396525235E-13   3.61168583752154E-15   9.19666252045903E-17  -3.66980699170697E-17
     -3.78326089620418E-16  -1.90561361300185E-17   2.91820667335289E-16  -3.66980813265421E-17  -1.51920465508412E-13
      5.57542174563279E-17
      1.00000000000000E+04
      8.00000000000000E-01   0.00000000000000E+00  -9.67717475994513E+00   3.03840931016824E-13   3.57634164247129E-15
     -2.06890735172868E-15  -3.55895429789046E-15  -1.57031691028356E-16  -1.73873445821354E-17  -1.87351546462356E-15
     -3.55895430896811E-15   1.21536372406729E-12   3.59715088423034E-15   7.63081520425584E-17  -3.81965752582434E-17
     -3.51308284101254E-16  -1.73873335044881E-17   2.70583246843228E-16  -3.81965863358906E-17  -1.51920465508412E-13
      5.55839198401751E-17
      1.00000000000000E+04
      8.00000000000000E-01   0.00000000000000E+00  -1.01771747599451E+01   3.03840931016824E-13   3.55629886155100E-15
     -1.89078291923183E-15  -3.54071427970948E-15  -1.36659523177334E-16  -1.55845818433478E-17  -1.69609555391696E-15
     -3.54071429044719E-15   1.51920465508412E-12   3.58054081627477E-15   5.88927525690221E-17  -3.98265258238144E-17
     -3.31742199364038E-16  -1.55845711056498E-17   2.53971495577366E-16  -3.98265365615139E-17   1.51920465508412E-13
      5.54111076673535E-17
      1.00000000000000E+04
      8.00000000000000E-01   0.00000000000000E+00  -1.06771747599451E+01   3.03840931016824E-13   3.53282812064285E-15
     -1.69230306112839E-15  -3.51924371876810E-15  -1.15895132265366E-16  -1.35844018765031E-17  -1.49579013742089E-15
     -3.51924372904259E-15   1.21536372406729E-12   3.56089172931357E-15   3.64238000674586E-17  -4.16480002671515E-17
     -3.14470160936394E-16  -1.35843916019987E-17   2.34988348228371E-16  -4.16480105416565E-17   0.00000000000000E+00
      5.52324021433474E-17
      1.00000000000000E+04
      8.00000000000000E-01   0.00000000000000E+00  -1.11771747599451E+01   3.03840931016824E-13   3.50522720318285E-15
     -1.46162613368935E-15  -3.49386382805023E-15  -9.37970632345420E-17  -1.13633751340684E-17  -1.26688653409012E-15
     -3.49386383753505E-15   7.59602327542059E-13   3.53754865534596E-15  -1.39825437043369E-19  -4.36848178067966E-17
     -2.89913558828911E-16  -1.13633656492470E-17   1.95955513046300E-16  -4.36848272916185E-17  -1.51920465508412E-13
      5.50481929409427E-17
      1.00000000000000E+04
      8.00000000000000E-01   0.00000000000000E+00  -1.16771747599451E+01   3.03840931016824E-13   3.47503842527220E-15
     -1.21571728723874E-15  -3.46597172971344E-15  -7.19084026885302E-17  -9.06669556021894E-18  -1.05071674492011E-15
     -3.46597173783549E-15   2.27880698262618E-12   3.51177629286297E-15  -7.95444484210775E-17  -4.58045550231513E-17
     -2.38855019040749E-16  -9.06668743815890E-18   8.74085072104554E-17  -4.58045631452115E-17   3.03840931016824E-13
      5.48712505822236E-17
      1.00000000000000E+04
      8.00000000000000E-01   0.00000000000000E+00  -1.21771747599451E+01   3.03840931016824E-13   3.44764000687519E-15
     -1.02324839455051E-15  -3.44055052279313E-15  -5.43987996904594E-17  -7.08948408336912E-18  -9.61925580768033E-16
     -3.44055052890179E-15  -6.07681862033647E-13   3.48819090332070E-15  -3.03514656824009E-16  -4.76403744130294E-17
     -1.09593258778024E-16  -7.08947797475858E-18  -2.48321003740820E-16  -4.76403805216397E-17  -1.51920465508412E-13
      5.47298584973162E-17
      1.00000000000000E+04
      8.00000000000000E-01   0.00000000000000E+00  -1.26771747599451E+01   3.03840931016824E-13   3.42841561477105E-15
     -8.99601398463810E-16  -3.42264285975117E-15  -4.33092826202289E-17  -5.77275502055998E-18  -1.19143873117351E-15
     -3.42264286327991E-15  -1.97496605160935E-12   3.47151419948506E-15  -1.02795126634326E-15  -4.88713362010057E-17
      2.56095661862285E-16  -5.77275149187792E-18  -1.32736159687667E-15  -4.88713397296876E-17   1.51920465508412E-13
      5.46440912214530E-17
      1.00000000000000E+04
      8.00000000000000E-01   0.00000000000000E+00  -1.31771747599451E+01   3.03840931016824E-13   3.41746742959515E-15
     -8.23134302616407E-16  -3.41240242107996E-15  -3.62331591312299E-17  -5.06500851673817E-18  -2.22084499823828E-15
     -3.41240242079855E-15   3.03840931016824E-13   3.46194252568726E-15  -3.41409083826525E-15  -4.95401048843765E-17
      1.35839269767807E-15  -5.06500879812530E-18  -4.80871910109453E-15  -4.95401046029895E-17  -3.03840931016824E-13
      5.46051134011299E-17
      1.00000000000000E+04
      8.00000000000000E-01   0.00000000000000E+00  -1.36771747599451E+01   3.03840931016824E-13   3.41171597047518E-15
     -7.74928024829384E-16  -3.40699798098256E-15  -3.02765133662877E-17  -4.71798949414467E-18  -5.54672842480810E-15
     -3.40699797253027E-15  -1.36728418957571E-12   3.45687263761741E-15  -1.10711012340240E-14  -4.98746650832801E-17
      4.74249217096645E-15  -4.71799794643178E-18  -1.58438650295097E-14  -4.98746566309929E-17   4.55761396525235E-13
      5.45926545770941E-17
      1.00000000000000E+04
      8.00000000000000E-01   0.00000000000000E+00  -1.41771747599451E+01   3.03840931016824E-13   3.40857166493786E-15
     -7.19818207809329E-16  -3.40402893369815E-15  -2.38928632719314E-17  -4.54273124130490E-18  -1.57518714460900E-14
     -3.40402890333475E-15  -1.06344325855888E-12   3.45407885423179E-15  -3.47896839197437E-14  -5.00499508925742E-17
      1.50072925058926E-14  -4.54276160468199E-18  -4.98208640261760E-14  -5.00499205291971E-17  -1.51920465508412E-13
      5.45926821338483E-17
      1.00000000000000E+04
      8.00000000000000E-01   0.00000000000000E+00  -1.46771747599451E+01   3.03840931016824E-13   3.40664719238944E-15
     -6.57398617329635E-16  -3.40220381891286E-15  -1.63326383689195E-17  -4.44337347748257E-18  -4.59919014479116E-14
     -3.40220372691074E-15   3.03840931016824E-13   3.45235879432571E-15  -1.05573048728170E-13  -5.01550674104761E-17
      4.53170936793421E-14  -4.44346547959833E-18  -1.50906453145551E-13  -5.01549754083604E-17   3.03840931016824E-13
      5.45984408880951E-17
      1.00000000000000E+04
      8.00000000000000E-01   0.00000000000000E+00  -1.51771747599451E+01   3.03840931016824E-13   3.40530212907623E-15
     -5.90423361875551E-16  -3.40092451256542E-15  -7.01244450129652E-18  -4.37761651233841E-18  -1.32465454086811E-13
     -3.40092424974268E-15   3.49417070669347E-12   3.45115364457585E-15  -3.08883586699620E-13  -5.02293948279129E-17
      1.31867515274905E-13  -4.37787933506301E-18  -4.40758101968244E-13  -5.02291320051883E-17   4.55761396525235E-13
      5.46070113399918E-17
      1.00000000000000E+04
      8.00000000000000E-01   0.00000000000000E+00  -1.56771747599451E+01   3.03840931016824E-13   3.40424976505207E-15
     -5.32203429178711E-16  -3.39992245604614E-15   5.32914047871740E-18  -4.32730900733310E-18  -3.70610614042717E-13
     -3.39992173471079E-15   6.83642094787853E-12   3.45021137883350E-15  -8.70406093521367E-13  -5.02896441184814E-17
      3.70085403805399E-13  -4.32803034268610E-18  -1.24048616221939E-12  -5.02889227831283E-17   4.55761396525235E-13
      5.46169531251327E-17
      1.00000000000000E+04
      8.00000000000000E-01   0.00000000000000E+00  -1.61771747599451E+01   3.03840931016824E-13   3.40335892109266E-15
     -4.95370990048266E-16  -3.39907447477084E-15   2.43228330004988E-17  -4.28444632301582E-18  -1.00118648162496E-12
     -3.39907256772100E-15   6.07681862033647E-12   3.44941511348006E-15  -2.36005124951396E-12  -5.03425457551002E-17
      1.00072052084061E-12  -4.28635337288386E-18  -3.36074744871478E-12  -5.03406387052321E-17   2.73456837915141E-12
      5.46269920770741E-17
      1.00000000000000E+04
      8.00000000000000E-01   0.00000000000000E+00  -1.66771747599451E+01   3.03840931016824E-13   3.40256668655007E-15
     -4.89198938706357E-16  -3.39832145714526E-15   5.88766605906125E-17  -4.24522940590923E-18  -2.60401938385244E-12
     -3.39831660385467E-15   9.41906886152153E-12   3.44870630066949E-15  -6.15078975993962E-12  -5.03896968112787E-17
      2.60358830857585E-12  -4.25008269649551E-18  -8.75431917933010E-12  -5.03848435206925E-17   6.53258001686171E-12
      5.46349262170224E-17
      1.00000000000000E+04
      8.00000000000000E-01   0.00000000000000E+00  -1.71771747599451E+01   3.03840931016824E-13   3.40184106018040E-15
     -5.55376231226778E-16  -3.39763350727772E-15   1.27836824527396E-16  -4.20755290392446E-18  -6.50782887469592E-12
     -3.39762163615087E-15   2.14207856366861E-11   3.44805012636281E-15  -1.53877096702873E-11  -5.04284902082372E-17
      6.50740521708678E-12  -4.21942403079721E-18  -2.18949870534757E-11  -5.04166190813643E-17   1.56478079473664E-11
      5.46360431126133E-17
      1.00000000000000E+04
      8.00000000000000E-01   0.00000000000000E+00  -1.76771747599451E+01   3.03840931016824E-13   3.40116478495911E-15
     -7.22167406175160E-16  -3.39699494023545E-15   2.66027822982082E-16  -4.16984472481266E-18  -1.55962350508424E-11
     -3.39696708997815E-15   5.69701745656544E-11   3.44741759151545E-15  -3.68880323220619E-11  -5.04505015321909E-17
      1.55957777241623E-11  -4.19769498209905E-18  -5.24835440462006E-11  -5.04226512749046E-17   3.72205140495609E-11
      5.46203462566237E-17
      1.00000000000000E+04
      8.00000000000000E-01   0.00000000000000E+00  -1.81771747599451E+01   3.03840931016824E-13   3.40052820652066E-15
     -1.07746589018340E-15  -3.39639781352780E-15   5.25060393299259E-16  -4.13039299491451E-18  -3.57527809228597E-11
     -3.39633532167141E-15   1.20169088217154E-10   3.44677281747704E-15  -8.45295186549500E-11  -5.04374957991397E-17
      3.57522273750662E-11  -4.19288485130607E-18  -1.20281221001586E-10  -5.03750039427483E-17   8.49235402192022E-11
      5.45678887935939E-17
      1.00000000000000E+04
      8.00000000000000E-01   0.00000000000000E+00  -1.86771747599451E+01   3.03840931016824E-13   3.39992609011312E-15
     -1.67655145302477E-15  -3.39583926840308E-15   9.47523104164707E-16  -4.08682171126127E-18  -7.81339767944502E-11
     -3.39570568309727E-15   2.62062803002010E-10   3.44606088049646E-15  -1.84528882014235E-10  -5.03551973943361E-17
      7.81332468625674E-11  -4.22040701705992E-18  -2.62661181338706E-10  -5.02216120885378E-17   1.84583365592720E-10
      5.44420191050266E-17
      1.00000000000000E+04
      8.00000000000000E-01   0.00000000000000E+00  -1.91771747599451E+01   3.03840931016824E-13   3.39935622282409E-15
     -2.46899590629544E-15  -3.39532055788769E-15   1.49323021349163E-15  -4.03566493836364E-18  -1.62041916447833E-10
     -3.39504999898725E-15   5.44027186985623E-10   3.44519664484027E-15  -3.81972781138097E-10  -5.01466458481020E-17
      1.62040942951948E-10  -4.30622383881401E-18  -5.44012230847324E-10  -4.98760869476519E-17   3.81624209357130E-10
      5.41823107859242E-17
      1.00000000000000E+04
      8.00000000000000E-01   0.00000000000000E+00  -1.96771747599451E+01   3.03840931016824E-13   3.39881873893018E-15
     -3.19856567270111E-15  -3.39484648544526E-15   1.98425279295019E-15  -3.97225348600783E-18  -3.17064643299904E-10
     -3.39433094518955E-15   1.06146829250727E-09   3.44406197578500E-15  -7.45302055279921E-10  -4.97310305914077E-17
      3.17063428105787E-10  -4.48779374171849E-18  -1.06236349911395E-09  -4.92154903356978E-17   7.45169883318760E-10
      5.37032840776980E-17
      1.00000000000000E+04
      8.00000000000000E-01   0.00000000000000E+00  -2.01771747599451E+01   1.51920465508412E-13   3.39831548195489E-15
     -3.59890011784640E-15  -3.39442412376355E-15   2.22345700078298E-15  -3.89135819234565E-18  -5.81527872982689E-10
     -3.39350729981919E-15   1.94336659478360E-09   3.44252581828284E-15  -1.36166804479311E-09  -4.90185184593282E-17
      5.81526501147633E-10  -4.80818213673140E-18  -1.94319232249598E-09  -4.81016945149406E-17   1.36135929142088E-09
      5.29098766515493E-17
      1.00000000000000E+04
      8.00000000000000E-01   0.00000000000000E+00  -2.06771747599451E+01   0.00000000000000E+00   3.39784893472206E-15
     -3.60148639884737E-15  -3.39406002158485E-15   2.18070980958263E-15  -3.78891313875897E-18  -9.93981570814890E-10
     -3.39254909043490E-15   3.31110654575584E-09   3.44049727286542E-15  -2.31570047211665E-09  -4.79481824268029E-17
      9.93980150124218E-10  -5.29984428871088E-18  -3.30967844153197E-09  -4.64372512768511E-17   2.31587557621023E-09
      5.17370955647077E-17
      1.00000000000000E+04
      8.00000000000000E-01   0.00000000000000E+00  -2.11771747599451E+01   0.00000000000000E+00   3.39742072116107E-15
     -3.34679741881346E-15  -3.39375643169055E-15   1.96096535512385E-15  -3.66428947204618E-18  -1.57856724926705E-09
     -3.39145719056794E-15   5.22955818419606E-09   3.43799201353497E-15  -3.65462774469069E-09  -4.65348229616211E-17
      1.57856586181998E-09  -5.96353059464446E-18  -5.23319164553052E-09  -4.42355818390268E-17   3.65429487733934E-09
      5.01991124334813E-17
      1.00000000000000E+04
      8.00000000000000E-01   0.00000000000000E+00  -2.16771747599451E+01   0.00000000000000E+00   3.39703034902808E-15
     -2.99442842040649E-15  -3.39350882349103E-15   1.67940627769124E-15  -3.52152553854239E-18  -2.33263258851141E-09
     -3.39027155247058E-15   7.69264469148394E-09   3.43515754183564E-15  -5.36057827603890E-09  -4.48859893605616E-17
      2.33263127617111E-09  -6.75879655901582E-18  -7.69320787283051E-09  -4.16487183400859E-17   5.36081746639533E-09
      4.84075148986039E-17
      1.00000000000000E+04
      8.00000000000000E-01   0.00000000000000E+00  -2.21771747599451E+01   0.00000000000000E+00   3.39667498600670E-15
     -2.65569369599212E-15  -3.39330673779285E-15   1.41748837327405E-15  -3.36824821561385E-18  -3.22651508746820E-09
     -3.38905726846004E-15   1.05800450589368E-08   3.43222208276060E-15  -7.35325050938244E-09  -4.31648142957205E-17
      3.22651385231468E-09  -7.61771754843963E-18  -1.05797629441927E-08  -3.89153449628978E-17   7.35325437153815E-09
      4.65330625105304E-17
      1.00000000000000E+04
      8.00000000000000E-01   0.00000000000000E+00  -2.26771747599451E+01   1.51920465508412E-13   3.39635028792454E-15
     -2.39078825170193E-15  -3.39313731638380E-15   1.20992243683082E-15  -3.21297154168419E-18  -4.21567608725192E-09
     -3.38787838714204E-15   1.37363446503396E-08   3.42940382845287E-15  -9.52147976590901E-09  -4.15254413064577E-17
      4.21567490663311E-09  -8.47190078344191E-18  -1.37371534626118E-08  -3.62665120646970E-17   9.52131133480869E-09
      4.47384128481578E-17
      1.00000000000000E+04
      8.00000000000000E-01   0.00000000000000E+00  -2.31771747599451E+01  -3.03840931016824E-13   3.39605153915439E-15
     -2.19612919553946E-15  -3.39298885081200E-15   1.05243723866913E-15  -3.06268834399667E-18  -5.25556151592235E-09
     -3.38677902303593E-15   1.70156998188042E-08   3.42684804526532E-15  -1.17592738955613E-08  -4.00690222258586E-17
      5.25556037504508E-09  -9.27251612009514E-18  -1.70148332181683E-08  -3.38591944497643E-17   1.17590997917476E-08
      4.31317105699355E-17
      1.00000000000000E+04
      8.00000000000000E-01   0.00000000000000E+00  -2.36771747599451E+01  -1.51920465508412E-13   3.39577444642521E-15
     -2.03346977727286E-15  -3.39285257372070E-15   9.27020904223906E-16  -2.92187270586787E-18  -6.31079975402388E-09
     -3.38577959521115E-15   2.02990049193719E-08   3.42461713334135E-15  -1.39865444296333E-08  -3.88375381263242E-17
      6.31079864443488E-09  -9.99485121540580E-18  -2.02973421470420E-08  -3.17645596167811E-17   1.39864057365664E-08
      4.17594108321717E-17
      1.00000000000000E+04
      8.00000000000000E-01   0.00000000000000E+00  -2.41771747599451E+01  -1.51920465508412E-13   3.39551544807173E-15
     -1.89651536893466E-15  -3.39272277406712E-15   8.19457395494781E-16  -2.79267400588601E-18  -7.35749703575678E-09
     -3.38488272115398E-15   2.35118189239438E-08   3.42271309849488E-15  -1.61527608044977E-08  -3.78303773365767E-17
      7.35749596087143E-09  -1.06327269190499E-17  -2.35102559459214E-08  -2.99903244234019E-17   1.61523358133199E-08
      4.06230513429711E-17
      1.00000000000000E+04
      8.00000000000000E-01   0.00000000000000E+00  -2.46771747599451E+01  -1.51920465508412E-13   3.39527171142401E-15
     -1.75819170361599E-15  -3.39259611248188E-15   7.23066237837244E-16  -2.67559894401975E-18  -8.38152567498329E-09
     -3.38408105770340E-15   2.66129713863671E-08   3.42110548656717E-15  -1.82313429347041E-08  -3.70244288582986E-17
      8.38152464217372E-09  -1.11906537225145E-17  -2.66128668538082E-08  -2.85093740798035E-17   1.82315193042680E-08
      3.97000278020349E-17
      1.00000000000000E+04
      8.00000000000000E-01   0.00000000000000E+00  -2.51771747599451E+01  -1.51920465508412E-13   3.39504100863706E-15
     -1.62107028290672E-15  -3.39247082068625E-15   6.36055212831606E-16  -2.57018795214660E-18  -9.37566696454470E-09
     -3.38336322023936E-15   2.95874221805562E-08   3.41975183339478E-15  -2.02119044659043E-08  -3.63886131512129E-17
      9.37566597680327E-09  -1.16777883990263E-17  -2.95875698066702E-08  -2.72810127043185E-17   2.02119544926356E-08
      3.89588011022088E-17
      1.00000000000000E+04
      8.00000000000000E-01   0.00000000000000E+00  -2.56771747599451E+01  -3.03840931016824E-13   3.39482157716849E-15
     -1.49994366622920E-15  -3.39234607046323E-15   5.58410697575498E-16  -2.47550670657816E-18  -1.03370655525518E-08
     -3.38271720440501E-15   3.24315252153392E-08   3.41860912227821E-15  -2.20937338388288E-08  -3.58919178689472E-17
      1.03370646105504E-08  -1.21043727647945E-17  -3.24307978909881E-08  -2.62630518107146E-17   2.20934894579573E-08
      3.83674245757680E-17
      1.00000000000000E+04
      8.00000000000000E-01   0.00000000000000E+00  -2.61771747599451E+01   0.00000000000000E+00   3.39461200340968E-15
     -1.38698728416197E-15  -3.39222155415628E-15   4.90178764201191E-16  -2.39044925510769E-18  -1.12653979017281E-08
     -3.38213198969228E-15   3.51461920135090E-08   3.41763889175637E-15  -2.38812902017602E-08  -3.55069020601531E-17
      1.12653970062942E-08  -1.24800137191313E-17  -3.51466867179185E-08  -2.54173375961113E-17   2.38817452574568E-08
      3.78973513146513E-17
      1.00000000000000E+04