DF-ISE text

Info {
  version   = 1.0
  type      = xyplot
  datasets  = [
    "frequency"
    "v(Ntop)" "v(Ptop)" "v(Pbot)" "a(Ntop,Ntop)" "c(Ntop,Ntop)"
    "a(Ntop,Ptop)" "c(Ntop,Ptop)" "a(Ntop,Pbot)" "c(Ntop,Pbot)" "a(Ptop,Ntop)"
    "c(Ptop,Ntop)" "a(Ptop,Ptop)" "c(Ptop,Ptop)" "a(Ptop,Pbot)" "c(Ptop,Pbot)"
    "a(Pbot,Ntop)" "c(Pbot,Ntop)" "a(Pbot,Ptop)" "c(Pbot,Ptop)" "a(Pbot,Pbot)"
    "c(Pbot,Pbot)" ]
  functions = [
    Frequency
    Voltage Voltage Voltage Admittance Capacitance
    Admittance Capacitance Admittance Capacitance Admittance
    Capacitance Admittance Capacitance Admittance Capacitance
    Admittance Capacitance Admittance Capacitance Admittance
    Capacitance ]
}

Data {
      1.00000000000000E+04
      8.00000000000000E-01   0.00000000000000E+00  -5.00000000000000E-02   3.03840931016824E-13   3.97122479592710E-15
     -8.80005829408725E-15  -3.86604206701444E-15  -5.59128420099750E-15  -1.05182728913843E-16  -8.81701134272087E-15
     -3.86604208559853E-15  -7.59602327542059E-13   3.86605674816812E-15   1.41499028399366E-15  -1.46625653936852E-20
     -5.57686290761825E-15  -1.05182710329763E-16   1.40056898837199E-15  -1.46811494792244E-20  -6.07681862033647E-13
      1.05197391479655E-16
      1.00000000000000E+04
      8.00000000000000E-01   0.00000000000000E+00  -1.45555555555556E-01   3.03840931016824E-13   3.96707797954577E-15
     -8.74678720263014E-15  -3.86602598217523E-15  -5.28443636584212E-15  -1.01051997372273E-16  -8.76332229492007E-15
     -3.86602600131198E-15  -1.21536372406729E-12   3.86604646804362E-15   1.35977143619751E-15  -2.04667273387525E-20
     -5.27129319221570E-15  -1.01051978235527E-16   1.34663827166451E-15  -2.04858641002846E-20  -3.03840931016824E-13
      1.01072464100233E-16
      1.00000000000000E+04
      8.00000000000000E-01   0.00000000000000E+00  -3.28172839506173E-01   3.03840931016824E-13   3.96033892953729E-15
     -8.66271778720565E-15  -3.86597700801727E-15  -4.80383331319493E-15  -9.43619215212509E-17  -8.67029983492368E-15
     -3.86597702804677E-15  -4.55761396525235E-13   3.86601458141632E-15   1.27045878348397E-15  -3.75533660240584E-20
     -4.79407739364916E-15  -9.43619014917396E-17   1.26070674229488E-15  -3.75733955366452E-20   3.03840931016824E-13
      9.43994748877688E-17
      1.00000000000000E+04
      8.00000000000000E-01   0.00000000000000E+00  -6.77174759945130E-01   3.03840931016824E-13   3.95035176867556E-15
     -8.53840292824592E-15  -3.86575876656149E-15  -4.15349920198795E-15  -8.45930021154687E-17  -8.53321852112354E-15
     -3.86575878792475E-15  -1.36728418957571E-12   3.86586791292072E-15   1.14046611665883E-15  -1.09124991474628E-19
     -4.15584190578213E-15  -8.45929807522504E-17   1.14281241971972E-15  -1.09146354698226E-19  -1.51920465508412E-13
      8.47021271065242E-17
      1.00000000000000E+04
      8.00000000000000E-01   0.00000000000000E+00  -1.17717475994513E+00   3.03840931016824E-13   3.93933107383421E-15
     -8.44467011543763E-15  -3.86470609778021E-15  -3.51386829067027E-15  -7.46249760549003E-17  -8.39272188026276E-15
     -3.86470612078992E-15   1.36728418957571E-12   3.86512859536655E-15   1.00843586478643E-15  -4.22474573091414E-19
     -3.56455353561925E-15  -7.46249530451655E-17   1.05911857631437E-15  -4.22497582821207E-19   0.00000000000000E+00
      7.50474506279459E-17
      1.00000000000000E+04
      8.00000000000000E-01   0.00000000000000E+00  -1.67717475994513E+00   3.03840931016824E-13   3.92831865071620E-15
     -8.43946968437614E-15  -3.86116860581221E-15  -3.01048395549679E-15  -6.71500449049893E-17  -8.25060662824754E-15
     -3.86116863102931E-15  -7.59602327542059E-13   3.86250666753760E-15   9.07726434082472E-16  -1.33803650421563E-18
     -3.19956909340422E-15  -6.71500196879159E-17   1.09681288151608E-15  -1.33806172129299E-18  -3.03840931016824E-13
      6.84880814083318E-17
      1.00000000000000E+04
      8.00000000000000E-01   0.00000000000000E+00  -2.17717475994513E+00   3.03840931016824E-13   3.91260173899432E-15
     -8.46253052387790E-15  -3.85158661204543E-15  -2.46569625346299E-15  -6.10151269495091E-17  -7.99432442910367E-15
     -3.85158664061889E-15   7.59602327542059E-13   3.85495366553828E-15   8.17098620840580E-16  -3.36702491618731E-18
     -2.93439322043775E-15  -6.10150983760375E-17   1.28579912005069E-15  -3.36705348965895E-18  -3.03840931016824E-13
      6.43821518652469E-17
      1.00000000000000E+04
      8.00000000000000E-01   0.00000000000000E+00  -2.67717475994513E+00   3.03840931016824E-13   3.88590842375111E-15
     -8.34045684680189E-15  -3.83103019770414E-15  -1.94170433809529E-15  -5.48782260481380E-17  -7.44356686068170E-15
     -3.83103023040064E-15   1.51920465508412E-13   3.83794736873786E-15   7.09381612044209E-16  -6.91713833357427E-18
     -2.84030105774397E-15  -5.48781933516184E-17   1.60797969620942E-15  -6.91717103009416E-18   1.51920465508412E-13
      6.17953643812806E-17
      1.00000000000000E+04
      8.00000000000000E-01   0.00000000000000E+00  -3.17717475994513E+00   3.03840931016824E-13   3.84669415496250E-15
     -8.06957006802138E-15  -3.79828468361391E-15  -1.62304914313981E-15  -4.84094713497907E-17  -6.56875641523037E-15
     -3.79828472089514E-15   1.97496605160935E-12   3.80995510175897E-15   5.82616723564143E-16  -1.16703808598345E-17
     -3.12477253391135E-15  -4.84094340685111E-17   2.08432982603799E-15  -1.16704181411099E-17  -3.03840931016824E-13
      6.00798522097634E-17
      1.00000000000000E+04
      8.00000000000000E-01   0.00000000000000E+00  -3.67717475994513E+00   3.03840931016824E-13   3.80449136101648E-15
     -7.55850364710618E-15  -3.76187608983435E-15  -1.26026251639681E-15  -4.26152711826766E-17  -5.72557482292470E-15
     -3.76187612735138E-15   3.03840931016824E-13   3.77822619469206E-15   4.74983133784782E-16  -1.63500673364185E-17
     -3.08936035531061E-15  -4.26152336656862E-17   2.30409207308068E-15  -1.63501048534102E-17  -1.51920465508412E-13
      5.89653385186609E-17
      1.00000000000000E+04
      8.00000000000000E-01   0.00000000000000E+00  -4.17717475994513E+00   3.03840931016824E-13   3.76947888706122E-15
     -6.99485776344471E-15  -3.73123732723475E-15  -9.88483366702033E-16  -3.82415598274556E-17  -5.18678928996251E-15
     -3.73123736127261E-15   1.21536372406729E-12   3.75125060429698E-15   4.07515534521930E-16  -2.00132430199065E-17
     -2.79876788487127E-15  -3.82415257895770E-17   2.21780310591868E-15  -2.00132770577861E-17   1.51920465508412E-13
      5.82548028467368E-17
      1.00000000000000E+04
      8.00000000000000E-01   0.00000000000000E+00  -4.67717475994513E+00   3.03840931016824E-13   3.74267922957136E-15
     -6.26547894745822E-15  -3.70762329628067E-15  -7.78549030922310E-16  -3.50559332911669E-17  -4.75213574513393E-15
     -3.70762332483386E-15  -4.55761396525235E-13   3.73034617671544E-15   3.56580703092453E-16  -2.27228518785649E-17
     -2.28892985131459E-15  -3.50559047380043E-17   1.86696057336191E-15  -2.27228804317282E-17  -1.51920465508412E-13
      5.77787851698409E-17
      1.00000000000000E+04
      8.00000000000000E-01   0.00000000000000E+00  -5.17717475994513E+00   3.03840931016824E-13   3.72123364078405E-15
     -5.28091079131142E-15  -3.68865231855892E-15  -6.05450062639446E-16  -3.25813222256226E-17  -4.18937111871385E-15
     -3.68865234146742E-15   1.51920465508412E-13   3.71349783684166E-15   2.99718785637262E-16  -2.48454953702162E-17
     -1.69555726270656E-15  -3.25812993171331E-17   1.38983165845454E-15  -2.48455182787056E-17  -1.51920465508412E-13
      5.74268175958870E-17
      1.00000000000000E+04
      8.00000000000000E-01   0.00000000000000E+00  -5.67717475994513E+00   3.03840931016824E-13   3.70284038459161E-15
     -4.37487420509629E-15  -3.67233699906584E-15  -4.75836933527009E-16  -3.05033855268762E-17  -3.63372401718971E-15
     -3.67233701779788E-15   7.59602327542059E-13   3.69897559327665E-15   2.47853116505576E-16  -2.66385754740279E-17
     -1.21490291535980E-15  -3.05033667948425E-17   9.86921481440812E-16  -2.66385942060616E-17  -3.03840931016824E-13
      5.71419610005360E-17
      1.00000000000000E+04
      8.00000000000000E-01   0.00000000000000E+00  -6.17717475994513E+00   3.03840931016824E-13   3.68619029287853E-15
     -3.73366222209044E-15  -3.65753562908617E-15  -3.90178950551807E-16  -2.86546637935593E-17  -3.21431862145160E-15
     -3.65753564526076E-15  -9.11522793050471E-13   3.68577742526119E-15   2.09659831726272E-16  -2.82417799954485E-17
     -9.07936519074275E-16  -2.86546476189890E-17   7.27418597131696E-16  -2.82417961700201E-17  -1.51920465508412E-13
      5.68964437886886E-17
      1.00000000000000E+04
      8.00000000000000E-01   0.00000000000000E+00  -6.67717475994513E+00   3.03840931016824E-13   3.67055104364882E-15
     -3.29076522863157E-15  -3.64360575378913E-15  -3.32604304503405E-16  -2.69452898607409E-17  -2.90243818328130E-15
     -3.64360576839257E-15  -1.82304558610094E-12   3.67333655534703E-15   1.81563214290953E-16  -2.97307869495290E-17
     -7.20118276204554E-16  -2.69452752572968E-17   5.69070090895802E-16  -2.97308015529725E-17   3.03840931016824E-13
      5.66760768097880E-17
      1.00000000000000E+04
      8.00000000000000E-01   0.00000000000000E+00  -7.17717475994513E+00   3.03840931016824E-13   3.65546696197231E-15
     -2.97120824226306E-15  -3.63014458173437E-15  -2.90204788269939E-16  -2.53223802389215E-17  -2.65947596613765E-15
     -3.63014459529047E-15  -3.03840931016824E-13   3.66129517996668E-15   1.59238087890567E-16  -3.11505846713133E-17
     -5.99118126162381E-16  -2.53223666828173E-17   4.68139610316409E-16  -3.11505982274162E-17  -1.51920465508412E-13
      5.64729649092598E-17
      1.00000000000000E+04
      8.00000000000000E-01   0.00000000000000E+00  -7.67717475994513E+00   3.03840931016824E-13   3.64060159835911E-15
     -2.70996680687284E-15  -3.61685124007733E-15  -2.56102745374471E-16  -2.37503582826731E-17  -2.45145398936931E-15
     -3.61685125288019E-15   1.82304558610094E-12   3.64938316020237E-15   1.40212929481208E-16  -3.25319073170776E-17
     -5.16171854487607E-16  -2.37503454797789E-17   4.00277642509956E-16  -3.25319201199708E-17  -1.51920465508412E-13
      5.62822655998295E-17
      1.00000000000000E+04
      8.00000000000000E-01   0.00000000000000E+00  -8.17717475994513E+00   3.03840931016824E-13   3.62565022642794E-15
     -2.49967411444973E-15  -3.60344929227607E-15  -2.27133098715909E-16  -2.22009341526347E-17  -2.26796358364664E-15
     -3.60344930450919E-15   6.07681862033647E-13   3.63734902761037E-15   1.23177722488260E-16  -3.38997230967150E-17
     -4.57046470526108E-16  -2.22009219195235E-17   3.53075283533568E-16  -3.38997353298261E-17  -4.55761396525235E-13
      5.61006572489273E-17
      1.00000000000000E+04
      8.00000000000000E-01   0.00000000000000E+00  -8.67717475994513E+00   3.03840931016824E-13   3.61027592026373E-15
     -2.31395439183480E-15  -3.58962913746471E-15  -2.01607390763105E-16  -2.06467828003969E-17  -2.10207504678662E-15
     -3.58962914924750E-15   7.59602327542059E-13   3.62490785890518E-15   1.07317272452965E-16  -3.52787096527479E-17
     -4.12936456598116E-16  -2.06467710175992E-17   3.18644389230038E-16  -3.52787214355444E-17  -4.55761396525235E-13
      5.59254924537317E-17
      1.00000000000000E+04
      8.00000000000000E-01   0.00000000000000E+00  -9.17717475994513E+00   3.03840931016824E-13   3.59404390371334E-15
     -2.13988882847718E-15  -3.57498775617463E-15  -1.78458467893538E-16  -1.90561475394399E-17  -1.93964460803006E-15
     -3.57498776758370E-15   4.55761396525235E-13   3.61168583750472E-15   9.19665186632044E-17  -3.66980699171139E-17
     -3.78325372731398E-16  -1.90561361303660E-17   2.91822046681330E-16  -3.66980813261880E-17  -1.51920465508412E-13
      5.57542174563643E-17
      1.00000000000000E+04
      8.00000000000000E-01   0.00000000000000E+00  -9.67717475994513E+00   3.03840931016824E-13   3.57634164245498E-15
     -1.96723805160182E-15  -3.55895429787426E-15  -1.57031469017302E-16  -1.73873445820806E-17  -1.77489960450419E-15
     -3.55895430895149E-15   1.21536372406729E-12   3.59715088421374E-15   7.63080842862465E-17  -3.81965752582887E-17
     -3.51308339131133E-16  -1.73873335048185E-17   2.70583127628100E-16  -3.81965863355495E-17  -1.51920465508412E-13
      5.55839198401936E-17
      1.00000000000000E+04
      8.00000000000000E-01   0.00000000000000E+00  -1.01771747599451E+01   3.03840931016824E-13   3.55629886153445E-15
     -1.79159121850348E-15  -3.54071427969225E-15  -1.36659325106136E-16  -1.55845818432818E-17  -1.59732715487412E-15
     -3.54071429042957E-15   1.51920465508412E-12   3.58054081625789E-15   5.88925416028633E-17  -3.98265258238679E-17
     -3.31740695520923E-16  -1.55845711059591E-17   2.53975333325193E-16  -3.98265365611911E-17   1.51920465508412E-13
      5.54111076671668E-17
      1.00000000000000E+04
      8.00000000000000E-01   0.00000000000000E+00  -1.06771747599451E+01   3.03840931016824E-13   3.53282812062594E-15
     -1.59090139453452E-15  -3.51924371875051E-15  -1.15895217180119E-16  -1.35844018764049E-17  -1.39328127384515E-15
     -3.51924372902464E-15   1.21536372406729E-12   3.56089172929634E-15   3.64233935226185E-17  -4.16480002672345E-17
     -3.14471556460100E-16  -1.35843916022527E-17   2.34984066978411E-16  -4.16480105413858E-17   0.00000000000000E+00
      5.52324021433246E-17
      1.00000000000000E+04
      8.00000000000000E-01   0.00000000000000E+00  -1.11771747599451E+01   3.03840931016824E-13   3.50522720316462E-15
     -1.36807012827425E-15  -3.49386382803197E-15  -9.37970812409869E-17  -1.13633751339037E-17  -1.16512637894216E-15
     -3.49386383751651E-15   6.07681862033647E-13   3.53754865532851E-15  -1.40118715188640E-19  -4.36848178069451E-17
     -2.89908316050253E-16  -1.13633656494116E-17   1.95975661597600E-16  -4.36848272914368E-17  -1.51920465508412E-13
      5.50481929399889E-17
      1.00000000000000E+04
      8.00000000000000E-01   0.00000000000000E+00  -1.16771747599451E+01   3.03840931016824E-13   3.47503842525209E-15
     -1.11703686766934E-15  -3.46597172969359E-15  -7.19081982146947E-17  -9.06669555996536E-18  -9.52761179713311E-16
     -3.46597173781535E-15   1.67112512059253E-12   3.51177629284405E-15  -7.95449822350529E-17  -4.58045550233821E-17
     -2.38852219703592E-16  -9.06668743818238E-18   8.74226489903125E-17  -4.58045631451653E-17   3.03840931016824E-13
      5.48712505822018E-17
      1.00000000000000E+04
      8.00000000000000E-01   0.00000000000000E+00  -1.21771747599451E+01   3.03840931016824E-13   3.44764000685337E-15
     -9.22720161883467E-16  -3.44055052277116E-15  -5.43987360306734E-17  -7.08948408306756E-18  -8.62308950287224E-16
     -3.44055052887961E-15  -7.59602327542059E-13   3.48819090329579E-15  -3.03514543968807E-16  -4.76403744133037E-17
     -1.09595150145757E-16  -7.08947797466479E-18  -2.48333706478820E-16  -4.76403805217064E-17  -1.51920465508412E-13
      5.47298584973257E-17
      1.00000000000000E+04
      8.00000000000000E-01   0.00000000000000E+00  -1.26771747599451E+01   3.03840931016824E-13   3.42841561474872E-15
     -7.96893082141103E-16  -3.42264285972937E-15  -4.33090371034685E-17  -5.77275502029079E-18  -1.09495882884122E-15
     -3.42264286325792E-15  -1.82304558610094E-12   3.47151419946358E-15  -1.02795102707902E-15  -4.88713362012551E-17
      2.56096714200228E-16  -5.77275149175170E-18  -1.32735268681215E-15  -4.88713397297941E-17   1.51920465508412E-13
      5.46440912213876E-17
      1.00000000000000E+04
      8.00000000000000E-01   0.00000000000000E+00  -1.31771747599451E+01   3.03840931016824E-13   3.41746742957291E-15
     -7.31307588448083E-16  -3.41240242105754E-15  -3.62332690073596E-17  -5.06500851653970E-18  -2.12177588687631E-15
     -3.41240242077609E-15   1.51920465508412E-13   3.46194252566592E-15  -3.41409099342845E-15  -4.95401048845579E-17
      1.35839324810714E-15  -5.06500879801759E-18  -4.80871370964688E-15  -4.95401046030799E-17  -3.03840931016824E-13
      5.46051134011563E-17
      1.00000000000000E+04
      8.00000000000000E-01   0.00000000000000E+00  -1.36771747599451E+01   3.03840931016824E-13   3.41171597045343E-15
     -6.75756294537981E-16  -3.40699798096027E-15  -3.02762574755328E-17  -4.71798949400955E-18  -5.44692429563457E-15
     -3.40699797250794E-15  -9.11522793050471E-13   3.45687263759511E-15  -1.10711013217188E-14  -4.98746650833992E-17
      4.74249121325690E-15  -4.71799794635230E-18  -1.58438751396978E-14  -4.98746566310565E-17   4.55761396525235E-13
      5.45926545770682E-17
      1.00000000000000E+04
      8.00000000000000E-01   0.00000000000000E+00  -1.41771747599451E+01   3.03840931016824E-13   3.40857166491639E-15
     -6.21666462676260E-16  -3.40402893367599E-15  -2.38922638064543E-17  -4.54273124121522E-18  -1.56532148954787E-14
     -3.40402890331257E-15  -9.11522793050471E-13   3.45407885420970E-15  -3.47896853495829E-14  -5.00499508926505E-17
      1.50072929818560E-14  -4.54276160462477E-18  -4.98208587700667E-14  -5.00499205292409E-17  -1.51920465508412E-13
      5.45926821338205E-17
      1.00000000000000E+04
      8.00000000000000E-01   0.00000000000000E+00  -1.46771747599451E+01   3.03840931016824E-13   3.40664719236817E-15
     -5.55519821048120E-16  -3.40220381889174E-15  -1.63327215495096E-17  -4.44337347742299E-18  -4.58927520777286E-14
     -3.40220372688958E-15   3.03840931016824E-13   3.45235879430479E-15  -1.05573049235261E-13  -5.01550674105313E-17
      4.53170943182051E-14  -4.44346547955599E-18  -1.50906445914319E-13  -5.01549754083984E-17   3.03840931016824E-13
      5.45984408881083E-17
      1.00000000000000E+04
      8.00000000000000E-01   0.00000000000000E+00  -1.51771747599451E+01   3.03840931016824E-13   3.40530212905514E-15
     -4.90795956182110E-16  -3.40092451254387E-15  -7.01242535524146E-18  -4.37761651229916E-18  -1.32365613964577E-13
     -3.40092424972113E-15   3.79801163771029E-12   3.45115364455460E-15  -3.08883586791541E-13  -5.02293948279437E-17
      1.31867515246671E-13  -4.37787933503015E-18  -4.40758102255152E-13  -5.02291320052127E-17   4.55761396525235E-13
      5.46070113399880E-17
      1.00000000000000E+04
      8.00000000000000E-01   0.00000000000000E+00  -1.56771747599451E+01   3.03840931016824E-13   3.40424976503108E-15
     -4.34955695439343E-16  -3.39992245602518E-15   5.32938714753701E-18  -4.32730900730820E-18  -3.70509467595195E-13
     -3.39992173468986E-15   6.98834141338694E-12   3.45021137881236E-15  -8.70406094895512E-13  -5.02896441185032E-17
      3.70085403755999E-13  -4.32803034265890E-18  -1.24048616270690E-12  -5.02889227831524E-17   4.55761396525235E-13
      5.46169531251053E-17
      1.00000000000000E+04
      8.00000000000000E-01   0.00000000000000E+00  -1.61771747599451E+01   3.03840931016824E-13   3.40335892107165E-15
     -3.91542324767566E-16  -3.39907447474950E-15   2.43227730207813E-17  -4.28444632300117E-18  -1.00108883626570E-12
     -3.39907256769964E-15   5.77297768931965E-12   3.44941511345896E-15  -2.36005125043126E-12  -5.03425457551087E-17
      1.00072051974498E-12  -4.28635337285917E-18  -3.36074746138045E-12  -5.03406387052509E-17   2.73456837915141E-12
      5.46269920771645E-17
      1.00000000000000E+04
      8.00000000000000E-01   0.00000000000000E+00  -1.66771747599451E+01   3.03840931016824E-13   3.40256668652910E-15
     -3.91018552476814E-16  -3.39832145712382E-15   5.88768359669956E-17  -4.24522940590274E-18  -2.60391926455919E-12
     -3.39831660383327E-15   8.81138699948788E-12   3.44870630064807E-15  -6.15078976061224E-12  -5.03896968112795E-17
      2.60358830872684E-12  -4.25008269646886E-18  -8.75431917698556E-12  -5.03848435207134E-17   6.53258001686171E-12
      5.46349262170439E-17
      1.00000000000000E+04
      8.00000000000000E-01   0.00000000000000E+00  -1.71771747599451E+01   3.03840931016824E-13   3.40184106015954E-15
     -4.50647753060322E-16  -3.39763350725695E-15   1.27837097774714E-16  -4.20755290392400E-18  -6.50772959025020E-12
     -3.39762163613010E-15   2.14207856366861E-11   3.44805012634203E-15  -1.53877096699590E-11  -5.04284902082361E-17
      6.50740521681675E-12  -4.21942403076082E-18  -2.18949870553419E-11  -5.04166190813994E-17   1.56478079473664E-11
      5.46360431126250E-17
      1.00000000000000E+04
      8.00000000000000E-01   0.00000000000000E+00  -1.76771747599451E+01   3.03840931016824E-13   3.40116478493827E-15
     -6.27918658032815E-16  -3.39699494021442E-15   2.66027678900933E-16  -4.16984472481728E-18  -1.55961357071586E-11
     -3.39696708995722E-15   5.66663336346376E-11   3.44741759149426E-15  -3.68880323217675E-11  -5.04505015321830E-17
      1.55957777250511E-11  -4.19769498203616E-18  -5.24835440320712E-11  -5.04226512749640E-17   3.72205140495609E-11
      5.46203462567205E-17
      1.00000000000000E+04
      8.00000000000000E-01   0.00000000000000E+00  -1.81771747599451E+01   3.03840931016824E-13   3.40052820649974E-15
     -9.79022319507991E-16  -3.39639781350610E-15   5.25060436769945E-16  -4.13039299492211E-18  -3.57526820951432E-11
     -3.39633532164984E-15   1.20472929148171E-10   3.44677281745439E-15  -8.45295186553058E-11  -5.04374957991258E-17
      3.57522273759935E-11  -4.19288485118202E-18  -1.20281220982420E-10  -5.03750039428660E-17   8.49235402192022E-11
      5.45678887935869E-17
      1.00000000000000E+04
      8.00000000000000E-01   0.00000000000000E+00  -1.86771747599451E+01   3.03840931016824E-13   3.39992609009227E-15
     -1.57881774520664E-15  -3.39583926838228E-15   9.47522902489702E-16  -4.08682171126999E-18  -7.81338782116631E-11
     -3.39570568307674E-15   2.62062803002010E-10   3.44606088047504E-15  -1.84528882013117E-10  -5.03551973943293E-17
      7.81332468616479E-11  -4.22040701680564E-18  -2.62661181332943E-10  -5.02216120887939E-17   1.84583365592720E-10
      5.44420191051208E-17
      1.00000000000000E+04
      8.00000000000000E-01   0.00000000000000E+00  -1.91771747599451E+01   3.03840931016824E-13   3.39935622280333E-15
     -2.36927781423055E-15  -3.39532055786618E-15   1.49322943567602E-15  -4.03566493837129E-18  -1.62041816869861E-10
     -3.39504999896625E-15   5.43875266520114E-10   3.44519664481772E-15  -3.81972781135017E-10  -5.01466458480921E-17
      1.62040942949114E-10  -4.30622383830012E-18  -5.44012230847351E-10  -4.98760869481632E-17   3.81624209357130E-10
      5.41823107858683E-17
      1.00000000000000E+04
      8.00000000000000E-01   0.00000000000000E+00  -1.96771747599451E+01   3.03840931016824E-13   3.39881873890945E-15
     -3.09727154827585E-15  -3.39484648542480E-15   1.98425222460030E-15  -3.97225348601377E-18  -3.17064544020858E-10
     -3.39433094517008E-15   1.06146829250727E-09   3.44406197576639E-15  -7.45302055274015E-10  -4.97310305914104E-17
      3.17063428100578E-10  -4.48779374072299E-18  -1.06236349910927E-09  -4.92154903367020E-17   7.45169883318760E-10
      5.37032840777310E-17
      1.00000000000000E+04
      8.00000000000000E-01   0.00000000000000E+00  -2.01771747599451E+01   1.51920465508412E-13   3.39831548193408E-15
     -3.49803719890125E-15  -3.39442412374248E-15   2.22345634915225E-15  -3.89135819235201E-18  -5.81527775390600E-10
     -3.39350729979992E-15   1.94367043571462E-09   3.44252581826425E-15  -1.36166804478182E-09  -4.90185184593341E-17
      5.81526501139618E-10  -4.80818213491219E-18  -1.94319232246591E-09  -4.81016945167726E-17   1.36135929142088E-09
      5.29098766515865E-17
      1.00000000000000E+04
      8.00000000000000E-01   0.00000000000000E+00  -2.06771747599451E+01   0.00000000000000E+00   3.39784893470131E-15
     -3.49845760904335E-15  -3.39406002156375E-15   2.18070862198019E-15  -3.78891313876883E-18  -9.93981470726727E-10
     -3.39254909041689E-15   3.31110654575584E-09   3.44049727284812E-15  -2.31570047209900E-09  -4.79481824268139E-17
      9.93980150108939E-10  -5.29984428560512E-18  -3.30967844151059E-09  -4.64372512799762E-17   2.31587557621023E-09
      5.17370955648088E-17
      1.00000000000000E+04
      8.00000000000000E-01   0.00000000000000E+00  -2.11771747599451E+01   0.00000000000000E+00   3.39742072114021E-15
     -3.24557891046455E-15  -3.39375643166919E-15   1.96096395818486E-15  -3.66428947206214E-18  -1.57856714814911E-09
     -3.39145719055152E-15   5.23001394559258E-09   3.43799201351762E-15  -3.65462774466512E-09  -4.65348229616371E-17
      1.57856586179700E-09  -5.96353058971086E-18  -5.23319164548396E-09  -4.42355818439909E-17   3.65429487733934E-09
      5.01991124335086E-17
      1.00000000000000E+04
      8.00000000000000E-01   0.00000000000000E+00  -2.16771747599451E+01   0.00000000000000E+00   3.39703034900738E-15
     -2.89116556966819E-15  -3.39350882347012E-15   1.67940537541525E-15  -3.52152553856530E-18  -2.33263248702420E-09
     -3.39027155245697E-15   7.69294853241496E-09   3.43515754182113E-15  -5.36057827600415E-09  -4.48859893605860E-17
      2.33263127613847E-09  -6.75879655172100E-18  -7.69320787276102E-09  -4.16487183474267E-17   5.36081746639533E-09
      4.84075148987535E-17
      1.00000000000000E+04
      8.00000000000000E-01   0.00000000000000E+00  -2.21771747599451E+01   0.00000000000000E+00   3.39667498598603E-15
     -2.55299569267945E-15  -3.39330673777203E-15   1.41748774800704E-15  -3.36824821564319E-18  -3.22651499127049E-09
     -3.38905726844930E-15   1.05798931384713E-08   3.43222208274919E-15  -7.35325050934068E-09  -4.31648142957503E-17
      3.22651385227080E-09  -7.61771753834146E-18  -1.05797629441152E-08  -3.89153449730533E-17   7.35325437153815E-09
      4.65330625105813E-17
      1.00000000000000E+04
      8.00000000000000E-01   0.00000000000000E+00  -2.26771747599451E+01   1.51920465508412E-13   3.39635028790380E-15
     -2.28977323433912E-15  -3.39313731636319E-15   1.20992152697604E-15  -3.21297154171861E-18  -4.21567598594756E-09
     -3.38787838713469E-15   1.37366484912706E-08   3.42940382844612E-15  -9.52147976586098E-09  -4.15254413064962E-17
      4.21567490657833E-09  -8.47190077023346E-18  -1.37371534624914E-08  -3.62665120779819E-17   9.52131133480869E-09
      4.47384128475283E-17
      1.00000000000000E+04
      8.00000000000000E-01   0.00000000000000E+00  -2.31771747599451E+01  -3.03840931016824E-13   3.39605153913361E-15
     -2.09589469208932E-15  -3.39298885079103E-15   1.05243590854463E-15  -3.06268834403463E-18  -5.25556141535237E-09
     -3.38677902303148E-15   1.70155478983386E-08   3.42684804526154E-15  -1.17592738955079E-08  -4.00690222259008E-17
      5.25556037497943E-09  -9.27251610361254E-18  -1.70148332180321E-08  -3.38591944663273E-17   1.17590997917476E-08
      4.31317105695165E-17
      1.00000000000000E+04
      8.00000000000000E-01   0.00000000000000E+00  -2.36771747599451E+01  -1.51920465508412E-13   3.39577444640448E-15
     -1.93670118722958E-15  -3.39285257369977E-15   9.27019961908762E-16  -2.92187270590802E-18  -6.31079965408028E-09
     -3.38577959521008E-15   2.02990049193719E-08   3.42461713334030E-15  -1.39865444295775E-08  -3.88375381263738E-17
      6.31079864435978E-09  -9.99485119559698E-18  -2.02973421469060E-08  -3.17645596366794E-17   1.39864057365664E-08
      4.17594108323420E-17
      1.00000000000000E+04
      8.00000000000000E-01   0.00000000000000E+00  -2.41771747599451E+01  -1.51920465508412E-13   3.39551544805093E-15
     -1.79817339071096E-15  -3.39272277404631E-15   8.19456042969322E-16  -2.79267400592731E-18  -7.35749693469166E-09
     -3.38488272115633E-15   2.35119708444094E-08   3.42271309849721E-15  -1.61527608044404E-08  -3.78303773366320E-17
      7.35749596078714E-09  -1.06327268959331E-17  -2.35102559457624E-08  -2.99903244466180E-17   1.61523358133199E-08
      4.06230513427615E-17
      1.00000000000000E+04
      8.00000000000000E-01   0.00000000000000E+00  -2.46771747599451E+01  -1.51920465508412E-13   3.39527171140324E-15
     -1.66107056956578E-15  -3.39259611246073E-15   7.23064937464870E-16  -2.67559894406149E-18  -8.38152557777355E-09
     -3.38408105770866E-15   2.66129713863671E-08   3.42110548657363E-15  -1.82313429346469E-08  -3.70244288583585E-17
      8.38152464208130E-09  -1.11906536961568E-17  -2.66128668536352E-08  -2.85093741062682E-17   1.82315193042680E-08
      3.97000278022231E-17
      1.00000000000000E+04
      8.00000000000000E-01   0.00000000000000E+00  -2.51771747599451E+01  -1.51920465508412E-13   3.39504100861625E-15
     -1.52813927695388E-15  -3.39247082066551E-15   6.36053581941041E-16  -2.57018795218827E-18  -9.37566686500229E-09
     -3.38336322024821E-15   2.95872702600907E-08   3.41975183340286E-15  -2.02119044658484E-08  -3.63886131512799E-17
      9.37566597670633E-09  -1.16777883695233E-17  -2.95875698065307E-08  -2.72810127339263E-17   2.02119544926356E-08
      3.89588011035455E-17
      1.00000000000000E+04
      8.00000000000000E-01   0.00000000000000E+00  -2.56771747599451E+01  -3.03840931016824E-13   3.39482157714770E-15
     -1.40320579756479E-15  -3.39234607044260E-15   5.58409344533322E-16  -2.47550670661893E-18  -1.03370654519033E-08
     -3.38271720441701E-15   3.24315252153392E-08   3.41860912229186E-15  -2.20937338387753E-08  -3.58919178690200E-17
      1.03370646104438E-08  -1.21043727322336E-17  -3.24307978907813E-08  -2.62630518434052E-17   2.20936413784228E-08
      3.83674245756793E-17
      1.00000000000000E+04
      8.00000000000000E-01   0.00000000000000E+00  -2.61771747599451E+01   0.00000000000000E+00   3.39461200338885E-15
     -1.28819529750540E-15  -3.39222155413544E-15   4.90177424897168E-16  -2.39044925514722E-18  -1.12653978018450E-08
     -3.38213198970699E-15   3.51461920135090E-08   3.41763889177310E-15  -2.38812902017082E-08  -3.55069020602280E-17
      1.12653970061871E-08  -1.24800136836301E-17  -3.51466867177749E-08  -2.54173376317216E-17   2.38817452574568E-08
      3.78973513152912E-17
      1.00000000000000E+04