DF-ISE text

Info {
  version   = 1.0
  type      = xyplot
  datasets  = [
    "frequency"
    "v(Ntop)" "v(Ptop)" "v(Pbot)" "a(Ntop,Ntop)" "c(Ntop,Ntop)"
    "a(Ntop,Ptop)" "c(Ntop,Ptop)" "a(Ntop,Pbot)" "c(Ntop,Pbot)" "a(Ptop,Ntop)"
    "c(Ptop,Ntop)" "a(Ptop,Ptop)" "c(Ptop,Ptop)" "a(Ptop,Pbot)" "c(Ptop,Pbot)"
    "a(Pbot,Ntop)" "c(Pbot,Ntop)" "a(Pbot,Ptop)" "c(Pbot,Ptop)" "a(Pbot,Pbot)"
    "c(Pbot,Pbot)" ]
  functions = [
    Frequency
    Voltage Voltage Voltage Admittance Capacitance
    Admittance Capacitance Admittance Capacitance Admittance
    Capacitance Admittance Capacitance Admittance Capacitance
    Admittance Capacitance Admittance Capacitance Admittance
    Capacitance ]
}

Data {
      1.00000000000000E+04
      8.00000000000000E-01   0.00000000000000E+00  -5.00000000000000E-02  -6.07681862033647E-13   1.28898520379668E-15
     -7.25084589247091E-15  -1.18380097015971E-15  -4.25559696017794E-15  -1.05184233637038E-16  -7.26433968819305E-15
     -1.18380097170224E-15   1.67112512059253E-12   1.18381461283218E-15   3.05762236092997E-16  -1.36411274936846E-20
     -4.24155493067373E-15  -1.05184232094532E-16   2.91722537135882E-16  -1.36426700047056E-20  -1.51920465508412E-13
      1.05197874763423E-16
      1.00000000000000E+04
      8.00000000000000E-01   0.00000000000000E+00  -1.45555555555556E-01  -3.03840931016824E-13   1.28484027602821E-15
     -7.23906035427824E-15  -1.18378621004681E-15  -4.00973771564216E-15  -1.01054065981577E-16  -7.25155016041243E-15
     -1.18378621183214E-15  -4.55761396525235E-13   1.18380525915438E-15   2.94132071036581E-16  -1.90473193308710E-20
     -3.99693959405466E-15  -1.01054064196264E-16   2.81342032536494E-16  -1.90491046533926E-20   3.03840931016824E-13
      1.01073113300617E-16
      1.00000000000000E+04
      8.00000000000000E-01   0.00000000000000E+00  -3.28172839506173E-01   1.51920465508412E-13   1.27810691341504E-15
     -7.22153237644101E-15  -1.18374128233142E-15  -3.62642883782792E-15  -9.43656310837720E-17  -7.23143259883146E-15
     -1.18374128451961E-15   4.55761396525235E-13   1.18377624414266E-15   2.75440543723069E-16  -3.49596195259272E-20
     -3.61688177478980E-15  -9.43656288955908E-17   2.65895616354914E-16  -3.49618077104345E-20  -6.07681862033647E-13
      9.44005907032575E-17
      1.00000000000000E+04
      8.00000000000000E-01   0.00000000000000E+00  -6.77174759945130E-01  -3.03840931016824E-13   1.26814468027915E-15
     -7.20572315453596E-15  -1.18354122625166E-15  -3.11487685078529E-15  -8.46034540276313E-17  -7.20365323165102E-15
     -1.18354122906617E-15   9.11522793050471E-13   1.18364281266668E-15   2.48729848400828E-16  -1.01583597189681E-19
     -3.11675920473921E-15  -8.46034512131367E-17   2.50620351274641E-16  -1.01586411691739E-19  -1.51920465508412E-13
      8.47050376246570E-17
      1.00000000000000E+04
      8.00000000000000E-01   0.00000000000000E+00  -1.17717475994513E+00   1.51920465508412E-13   1.25724257342441E-15
     -7.23365082503295E-15  -1.18257823951843E-15  -2.61299367069997E-15  -7.46643339061085E-17  -7.18641129552118E-15
     -1.18257824321322E-15   1.21536372406729E-12   1.18297109967319E-15   2.23004005258256E-16  -3.92856457325543E-19
     -2.65999181198258E-15  -7.46643302113224E-17   2.70000709635046E-16  -3.92860152111452E-19   1.51920465508412E-13
      7.50571903631746E-17
      1.00000000000000E+04
      8.00000000000000E-01   0.00000000000000E+00  -1.67717475994513E+00   0.00000000000000E+00   1.24662878126134E-15
     -7.36844918219833E-15  -1.17935630400167E-15  -2.21185566116825E-15  -6.72724772598540E-17  -7.19311815741203E-15
     -1.17935630915665E-15   1.21536372406729E-12   1.18059728440686E-15   2.05108250212396E-16  -1.24097524737890E-18
     -2.38698363908659E-15  -6.72724721048714E-17   3.80233062442150E-16  -1.24098040236098E-18   0.00000000000000E+00
      6.85134525069624E-17
      1.00000000000000E+04
      8.00000000000000E-01   0.00000000000000E+00  -2.17717475994513E+00  -4.55761396525235E-13   1.23201488501217E-15
     -7.63143572896825E-15  -1.17069110506620E-15  -1.75602713402364E-15  -6.13237799462108E-17  -7.19981986123593E-15
     -1.17069111268878E-15   6.07681862033647E-13   1.17380046472841E-15   1.89854431291847E-16  -3.10935203614242E-18
     -2.18778964198278E-15  -6.13237723236388E-17   6.21611809915104E-16  -3.10935965871517E-18   3.03840931016824E-13
      6.44331319828873E-17
      1.00000000000000E+04
      8.00000000000000E-01   0.00000000000000E+00  -2.67717475994513E+00  -6.07681862033647E-13   1.20775478357837E-15
     -7.96449306865804E-15  -1.15223249282095E-15  -1.32880970163473E-15  -5.55222907576297E-17  -7.14325153335849E-15
     -1.15223250383069E-15   3.64609117220188E-12   1.15859142651155E-15   1.68524128871947E-16  -6.35892267744425E-18
     -2.15004480138207E-15  -5.55222797479009E-17   9.89769453473104E-16  -6.35893368717440E-18  -4.55761396525235E-13
      6.18812134346129E-17
      1.00000000000000E+04
      8.00000000000000E-01   0.00000000000000E+00  -3.17717475994513E+00  -7.59602327542059E-13   1.17232449295767E-15
     -8.36644556992568E-15  -1.12283796424194E-15  -1.12161812354046E-15  -4.94865287158622E-17  -6.99366439259677E-15
     -1.12283797932996E-15   3.79801163771029E-12   1.13355085607694E-15   1.39358964130659E-16  -1.07128767443373E-17
     -2.49442632249507E-15  -4.94865136278515E-17   1.51216920407096E-15  -1.07128918323491E-17   4.55761396525235E-13
      6.01994054599713E-17
      1.00000000000000E+04
      8.00000000000000E-01   0.00000000000000E+00  -3.67717475994513E+00  -3.03840931016824E-13   1.13397056298052E-15
     -8.55352839843142E-15  -1.08990708291519E-15  -8.56925601497188E-16  -4.40634800653963E-17  -6.87116542550056E-15
     -1.08990709915512E-15   7.59602327542059E-13   1.10494924442817E-15   1.16814589942166E-16  -1.50421452705396E-17
     -2.53922017860025E-15  -4.40634638254715E-17   1.79910503964542E-15  -1.50421615104649E-17   3.03840931016824E-13
      5.91056253363479E-17
      1.00000000000000E+04
      8.00000000000000E-01   0.00000000000000E+00  -4.17717475994513E+00  -7.59602327542059E-13   1.10213318315266E-15
     -8.56309542284926E-15  -1.06218129120359E-15  -6.57780114614928E-16  -3.99518919492862E-17  -6.87290063297292E-15
     -1.06218130582415E-15  -6.07681862033647E-13   1.08063433585965E-15   1.09117978014116E-16  -1.84530300325702E-17
     -2.34763618423486E-15  -3.99518773287397E-17   1.79896782421591E-15  -1.84530446531175E-17   1.51920465508412E-13
      5.84049219817659E-17
      1.00000000000000E+04
      8.00000000000000E-01   0.00000000000000E+00  -4.67717475994513E+00  -7.59602327542059E-13   1.07823184246789E-15
     -8.28882582582915E-15  -1.04124570947206E-15  -4.99765164973674E-16  -3.69861329960895E-17  -6.84958961949100E-15
     -1.04124572080157E-15   1.06344325855888E-12   1.06219628531161E-15   1.01184449561479E-16  -2.09505645083656E-17
     -1.93892060134370E-15  -3.69861216665772E-17   1.54033840445649E-15  -2.09505758378776E-17   0.00000000000000E+00
      5.79366975045706E-17
      1.00000000000000E+04
      8.00000000000000E-01   0.00000000000000E+00  -5.17717475994513E+00  -6.07681862033647E-13   1.05976711288051E-15
     -7.67775656359530E-15  -1.02503430078148E-15  -3.65616662137599E-16  -3.47328120992707E-17  -6.61865304690837E-15
     -1.02503430844829E-15   1.21536372406729E-12   1.04789571844969E-15   7.74354784240299E-17  -2.28614099976316E-17
     -1.42449874708102E-15  -3.47328044324597E-17   1.13631974398427E-15  -2.28614176644429E-17  -1.51920465508412E-13
      5.75942220975912E-17
      1.00000000000000E+04
      8.00000000000000E-01   0.00000000000000E+00  -5.67717475994513E+00  -1.21536372406729E-12   1.04456292571257E-15
     -7.03049413202726E-15  -1.01167205305983E-15  -2.62383070902171E-16  -3.28908726529039E-17  -6.31129703048123E-15
     -1.01167205794027E-15   4.55761396525235E-13   1.03610220460417E-15   4.96723499895167E-17  -2.44301466605780E-17
     -9.81807527396868E-16  -3.28908677724683E-17   7.69097001125866E-16  -2.44301515410138E-17   3.03840931016824E-13
      5.73210193130792E-17
      1.00000000000000E+04
      8.00000000000000E-01   0.00000000000000E+00  -6.17717475994513E+00  -6.07681862033647E-13   1.03135727168440E-15
     -6.58046820456472E-15  -1.00006038025639E-15  -1.96435715726351E-16  -3.12968914281133E-17  -6.08401652963135E-15
     -1.00006038349729E-15   7.59602327542059E-13   1.02585262175769E-15   3.03297504333486E-17  -2.57922382575267E-17
     -6.93141403030426E-16  -3.12968881872106E-17   5.27032162570211E-16  -2.57922414984293E-17   0.00000000000000E+00
      5.70891296849261E-17
      1.00000000000000E+04
      8.00000000000000E-01   0.00000000000000E+00  -6.67717475994513E+00  -3.03840931016824E-13   1.01945897999998E-15
     -6.30285712205021E-15  -9.89595068575640E-16  -1.55817767808772E-16  -2.98639114245622E-17  -5.93925353694236E-15
     -9.89595070902876E-16   1.82304558610094E-12   1.01661540952858E-15   1.85002836064238E-17  -2.70203386230604E-17
     -5.19231853982528E-16  -2.98639090973271E-17   3.81909700655529E-16  -2.70203409502957E-17   1.51920465508412E-13
      5.68842500478096E-17
      1.00000000000000E+04
      8.00000000000000E-01   0.00000000000000E+00  -7.17717475994513E+00  -3.03840931016824E-13   1.00847151831975E-15
     -6.12670184295603E-15  -9.79928443688867E-16  -1.28748154897529E-16  -2.85430746310765E-17  -5.84462207561057E-15
     -9.79928445475413E-16   2.27880698262618E-12   1.00808392244647E-15   1.08220155665037E-17  -2.81554769682694E-17
     -4.10807230710489E-16  -2.85430728445312E-17   2.92881988263765E-16  -2.81554787548146E-17  -6.07681862033647E-13
      5.66985515995631E-17
      1.00000000000000E+04
      8.00000000000000E-01   0.00000000000000E+00  -7.67717475994513E+00  -6.07681862033647E-13   9.98150094782436E-16
     -6.00756090149125E-15  -9.70845113165916E-16  -1.08716902181680E-16  -2.73049816166764E-17  -5.77773487851042E-15
     -9.70845114605064E-16   1.21536372406729E-12   1.00006758703603E-15   5.25803453633782E-18  -2.92224724279811E-17
     -3.38999994175714E-16  -2.73049801775272E-17   2.35528174748640E-16  -2.92224738671302E-17  -1.51920465508412E-13
      5.65274540442641E-17
      1.00000000000000E+04
      8.00000000000000E-01   0.00000000000000E+00  -8.17717475994513E+00  -7.59602327542059E-13   9.88332802160368E-16
     -5.92355727757947E-15  -9.62201905285949E-16  -9.28621456964248E-17  -2.61308968745397E-17  -5.72723558952874E-15
     -9.62201906485925E-16  -3.03840931016824E-13   9.92439151530272E-16   8.21973819905650E-19  -3.02372450415193E-17
     -2.89311804242768E-16  -2.61308956745662E-17   1.97269310850268E-16  -3.02372462414929E-17  -1.51920465508412E-13
      5.63681419157716E-17
      1.00000000000000E+04
      8.00000000000000E-01   0.00000000000000E+00  -8.67717475994513E+00  -9.11522793050471E-13   9.78906343408069E-16
     -5.86059608999885E-15  -9.53897971831335E-16  -7.99913996435275E-17  -2.50083715768876E-17  -5.68660580576293E-15
     -9.53897972856839E-16   9.11522793050471E-13   9.85108428451630E-16  -2.97620115879821E-18  -3.12104555915639E-17
     -2.53847806299637E-16  -2.50083705513854E-17   1.70874793350460E-16  -3.12104566170660E-17   0.00000000000000E+00
      5.62188271690114E-17
      1.00000000000000E+04
      8.00000000000000E-01   0.00000000000000E+00  -9.17717475994513E+00  -7.59602327542059E-13   9.69787626510597E-16
     -5.81024424027260E-15  -9.45858769523327E-16  -6.93588199803966E-17  -2.39288569874359E-17  -5.65312650565545E-15
     -9.45858770413555E-16   3.03840931016824E-13   9.78008256388386E-16  -6.40125255823131E-18  -3.21494859727442E-17
     -2.26961364504085E-16  -2.39288560972064E-17   1.51201937484210E-16  -3.21494868629735E-17  -3.03840931016824E-13
      5.60783429592692E-17
      1.00000000000000E+04
      8.00000000000000E-01   0.00000000000000E+00  -9.67717475994513E+00  -1.21536372406729E-12   9.60913080293053E-16
     -5.76902571655120E-15  -9.38026784495568E-16  -6.06207037158812E-17  -2.28862957976567E-17  -5.62444064315934E-15
     -9.38026785275783E-16   2.43072744813459E-12   9.71086391990047E-16  -9.66793204091792E-18  -3.30596067109171E-17
     -2.05642128868582E-16  -2.28862950174446E-17   1.35359663590350E-16  -3.30596074911294E-17   0.00000000000000E+00
      5.59459025079492E-17
      1.00000000000000E+04
      8.00000000000000E-01   0.00000000000000E+00  -1.01771747599451E+01  -1.21536372406729E-12   9.52232200370199E-16
     -5.73472261446742E-15  -9.30355929836692E-16  -5.36431143786920E-17  -2.18762705337602E-17  -5.60042365399538E-15
     -9.30355930523584E-16  -6.07681862033647E-13   9.64300614705548E-16  -1.31910341268592E-17  -3.39446841790250E-17
     -1.88296660357986E-16  -2.18762698468668E-17   1.21460429310090E-16  -3.39446848659183E-17   4.55761396525235E-13
      5.58209547121226E-17
      1.00000000000000E+04
      8.00000000000000E-01   0.00000000000000E+00  -1.06771747599451E+01  -3.03840931016824E-13   9.43703752887017E-16
     -5.70692541882334E-15  -9.22808241500911E-16  -4.83698956579905E-17  -2.08955113862377E-17  -5.58233724829303E-15
     -9.22808242101948E-16  -9.11522793050471E-13   9.57615832917839E-16  -1.81984662919841E-17  -3.48075908137130E-17
     -1.72687371374191E-16  -2.08955107852014E-17   1.06113904501288E-16  -3.48075914147491E-17  -3.03840931016824E-13
      5.57031021999485E-17
      1.00000000000000E+04
      8.00000000000000E-01   0.00000000000000E+00  -1.11771747599451E+01   0.00000000000000E+00   9.35293840628159E-16
     -5.68204972573582E-15  -9.15352193757628E-16  -4.42885902374035E-17  -1.99416468706583E-17  -5.57735581306965E-15
     -9.15352194255068E-16  -1.06344325855888E-12   9.51002606622501E-16  -2.87647450485288E-17  -3.56504123644606E-17
     -1.49164137276959E-16  -1.99416463732219E-17   7.61148546737359E-17  -3.56504128618970E-17   0.00000000000000E+00
      5.55920592338257E-17
      1.00000000000000E+04
      8.00000000000000E-01   0.00000000000000E+00  -1.16771747599451E+01  -6.07681862033647E-13   9.26975396008825E-16
     -5.65983807421672E-15  -9.07962276867697E-16  -4.09467303520260E-17  -1.90131191412369E-17  -5.60880038293315E-15
     -9.07962277181538E-16  -9.11522793050471E-13   9.44436791484123E-16  -5.83395279586690E-17  -3.64745142997580E-17
     -9.21718773486937E-17  -1.90131188273971E-17  -7.11165404216663E-18  -3.64745146135976E-17   4.55761396525235E-13
      5.54876334411879E-17
      1.00000000000000E+04
      8.00000000000000E-01   0.00000000000000E+00  -1.21771747599451E+01  -9.11522793050471E-13   9.18728877273244E-16
     -5.63995809356372E-15  -9.00619664632553E-16  -3.81122509028663E-17  -1.81092126407826E-17  -5.74990193416234E-15
     -9.00619664509413E-16   1.21536372406729E-12   9.37900172571015E-16  -1.50376642930631E-16  -3.72805080593334E-17
      7.19887369319466E-17  -1.81092127639250E-17  -2.60476641311915E-16  -3.72805079361911E-17  -3.03840931016824E-13
      5.53897206996264E-17
      1.00000000000000E+04
      8.00000000000000E-01   0.00000000000000E+00  -1.26771747599451E+01  -3.03840931016824E-13   9.10544058527628E-16
     -5.62113646146412E-15  -8.93313896605667E-16  -3.56209435626228E-17  -1.72301619221304E-17  -6.22219235494268E-15
     -8.93313895286456E-16   3.03840931016824E-13   9.31382039928757E-16  -4.44095223030622E-16  -3.80681446400299E-17
      5.65415629293046E-16  -1.72301632413434E-17  -1.04514359814650E-15  -3.80681433208170E-17  -3.03840931016824E-13
      5.52983065618935E-17
      1.00000000000000E+04
      8.00000000000000E-01   0.00000000000000E+00  -1.31771747599451E+01  -7.59602327542059E-13   9.02422788400551E-16
     -5.60357723722816E-15  -8.86045481108333E-16  -3.32969141766564E-17  -1.63773072924683E-17  -7.68222543691767E-15
     -8.86045476384847E-16   3.03840931016824E-13   9.24881638355205E-16  -1.37493346046793E-15  -3.88361619667579E-17
      2.04501810822310E-15  -1.63773120159558E-17  -3.45325041345458E-15  -3.88361572432705E-17  -1.51920465508412E-13
      5.52134692592564E-17
      1.00000000000000E+04
      8.00000000000000E-01   0.00000000000000E+00  -1.36771747599451E+01  -6.07681862033647E-13   8.94382395994800E-16
     -5.58840787437929E-15  -8.78829142799768E-16  -3.09546465923895E-17  -1.55532531951267E-17  -1.20198009426934E-14
     -8.78829128418581E-16   1.21536372406729E-12   9.18411254311073E-16  -4.26797055596405E-15  -3.95821258897494E-17
      6.40068635635601E-15  -1.55532675763184E-17  -1.06996000386241E-14  -3.95821115085576E-17   1.51920465508412E-13
      5.51353790851702E-17
      1.00000000000000E+04
      8.00000000000000E-01   0.00000000000000E+00  -1.41771747599451E+01  -4.55761396525235E-13   8.86459020793394E-16
     -5.57443000347773E-15  -8.71697063887088E-16  -2.84008979665496E-17  -1.47619569065250E-17  -2.45254155573947E-14
     -8.71697022594832E-16   1.67112512059253E-12   9.11999352704748E-16  -1.30452948672093E-14  -4.03023301076099E-17
      1.89230113468173E-14  -1.47619981987846E-17  -3.19967148681548E-14  -4.03022888153503E-17  -4.55761396525235E-13
      5.50642870136507E-17
      1.00000000000000E+04
      8.00000000000000E-01   0.00000000000000E+00  -1.46771747599451E+01  -6.07681862033647E-13   8.78709602634738E-16
     -5.56137229070518E-15  -8.64700956836463E-16  -2.53916113376500E-17  -1.40086457984775E-17  -5.95884148082815E-14
     -8.64700842292461E-16   1.82304558610094E-12   9.05692689331276E-16  -3.89725729274490E-14  -4.09918470360585E-17
      5.40015540660843E-14  -1.40087603424795E-17  -9.29995102622310E-14  -4.09917324920564E-17  -1.51920465508412E-13
      5.50004928350678E-17
      1.00000000000000E+04
      8.00000000000000E-01   0.00000000000000E+00  -1.51771747599451E+01  -3.03840931016824E-13   8.71210844960329E-16
     -5.55111736838551E-15  -8.57911390674897E-16  -2.15217532128641E-17  -1.32994542855983E-17  -1.55181658468825E-13
     -8.57911081846139E-16   3.03840931016824E-13   8.99555907734245E-16  -1.13380031826409E-13  -4.16448258857988E-17
      1.49608789360938E-13  -1.32997631143553E-17  -2.63010351103685E-13  -4.16445170570419E-17  -1.51920465508412E-13
      5.49442801715862E-17
      1.00000000000000E+04
      8.00000000000000E-01   0.00000000000000E+00  -1.56771747599451E+01  -3.03840931016824E-13   8.64053626618927E-16
     -5.54441593480261E-15  -8.51412907813772E-16  -1.59972076372177E-17  -1.26407188053735E-17  -4.08400310153029E-13
     -8.51412097655568E-16   2.88648884465982E-12   8.93667179948355E-16  -3.20424114989966E-13  -4.22550822901909E-17
      4.02840049553683E-13  -1.26415289635792E-17  -7.23280164324915E-13  -4.22542721319852E-17   3.03840931016824E-13
      5.48958010961315E-17
      1.00000000000000E+04
      8.00000000000000E-01   0.00000000000000E+00  -1.61771747599451E+01  -7.59602327542059E-13   8.57332527328512E-16
     -5.54470092885323E-15  -8.45294540640350E-16  -7.12435246157080E-18  -1.20379866882567E-17  -1.05944707651881E-12
     -8.45292473543658E-16   6.38065955135330E-12   8.88109366439110E-16  -8.77876440253409E-13  -4.28168928928563E-17
      1.05389476383242E-12  -1.20400537849495E-17  -1.93177833247889E-12  -4.28148257961635E-17   7.59602327542059E-13
      5.48548795809390E-17
      1.00000000000000E+04
      8.00000000000000E-01   0.00000000000000E+00  -1.66771747599451E+01  -6.07681862033647E-13   8.51132237056140E-16
     -5.56080184861384E-15  -8.39637291389722E-16   8.83827437136830E-18  -1.14949456665319E-17  -2.68206634364241E-12
     -8.39632166512413E-16   7.29218234440377E-12   8.82957885901441E-16  -2.32707390207611E-12  -4.33257193870386E-17
      2.67651446806516E-12  -1.15000705438420E-17  -5.00357953504606E-12  -4.33205945097285E-17   1.97496605160935E-12
      5.48206650538611E-17
      1.00000000000000E+04
      8.00000000000000E-01   0.00000000000000E+00  -1.71771747599451E+01  -9.11522793050471E-13   8.45514596995847E-16
     -5.60834984691662E-15  -8.34502028850450E-16   4.00808974478527E-17  -1.10125681455099E-17  -6.59576270791066E-12
     -8.34489699085095E-16   1.30651600337234E-11   8.78268112080090E-16  -5.95646377372992E-12  -4.37784129917645E-17
      6.59019461431413E-12  -1.10248979108666E-17  -1.25466182836268E-11  -4.37660832264077E-17   6.38065955135330E-12
      5.47909811369353E-17
      1.00000000000000E+04
      8.00000000000000E-01   0.00000000000000E+00  -1.76771747599451E+01  -3.03840931016824E-13   8.40510405790306E-16
     -5.72132604300573E-15  -8.29921710094353E-16   1.03470554793521E-16  -1.05886956960802E-17  -1.57106727164992E-11
     -8.29892977393018E-16   3.23590591532917E-11   8.74065344495171E-16  -1.46905524876703E-11  -4.41723670996938E-17
      1.57050549681888E-11  -1.06174283974166E-17  -3.03955040020149E-11  -4.41436343983574E-17   1.51920465508412E-11
      5.47610627957942E-17
      1.00000000000000E+04
      8.00000000000000E-01   0.00000000000000E+00  -1.81771747599451E+01   3.03840931016824E-13   8.36118351282284E-16
     -5.96167647676991E-15  -8.25900276138390E-16   2.30048404415577E-16  -1.02180751440387E-17  -3.61467758070739E-11
     -8.25835582711127E-16   7.47448690301386E-11   8.70338687404307E-16  -3.48257031011165E-11  -4.45031046913741E-17
      3.61410435685663E-11  -1.02827685713024E-17  -7.09665166067360E-11  -4.44384112641103E-17   3.46378661359179E-11
      5.47211798349745E-17
      1.00000000000000E+04
      8.00000000000000E-01   0.00000000000000E+00  -1.86771747599451E+01  -3.03840931016824E-13   8.32310555474819E-16
     -6.42209069895944E-15  -8.22417921333768E-16   4.65704777930557E-16  -9.89263414119170E-18  -8.00748244199879E-11
     -8.22277663148192E-16   1.60428011576883E-10   8.67037572716314E-16  -7.91204049827322E-11  -4.47599095644180E-17
      8.00688675880395E-11  -1.00328923267660E-17  -1.59188806833732E-10  -4.46196513788436E-17   7.89986420643741E-11
      5.46525437053513E-17
      1.00000000000000E+04
      8.00000000000000E-01   0.00000000000000E+00  -1.91771747599451E+01  -7.59602327542059E-13   8.29042025639033E-16
     -7.17640173099219E-15  -8.19440304480971E-16   8.48309004366461E-16  -9.60172115809197E-18  -1.70101043781676E-10
     -8.19148837626663E-16   3.42428729255960E-10   8.64068400178677E-16  -1.71619474322102E-10  -4.49195625501165E-17
      1.70094714849722E-10  -9.89318801239919E-18  -3.41713340854832E-10  -4.46280956958091E-17   1.71973966955522E-10
      5.45212837078635E-17
      1.00000000000000E+04
      8.00000000000000E-01   0.00000000000000E+00  -1.96771747599451E+01   3.03840931016824E-13   8.26260703409596E-16
     -8.16156750803099E-15  -8.16928468313051E-16   1.34276517060323E-15  -9.33223509673334E-18  -3.44705449772200E-10
     -8.16351411290029E-16   6.98530300407677E-10   8.61291130243043E-16  -3.53691237809405E-10  -4.49397189506041E-17
      3.44698630990769E-10  -9.90929211975495E-18  -6.98388526047918E-10  -4.43626619275822E-17   3.53518923238074E-10
      5.42719540470434E-17
      1.00000000000000E+04
      8.00000000000000E-01   0.00000000000000E+00  -2.01771747599451E+01  -6.07681862033647E-13   8.23915378150374E-16
     -9.07478623910840E-15  -8.14846353531127E-16   1.79121066510219E-15  -9.06902461935409E-18  -6.62170582763969E-10
     -8.13766044285982E-16   1.35421902954198E-09   8.58522811517989E-16  -6.88421705388161E-10  -4.47567672297412E-17
      6.62163299587766E-10  -1.01493338644993E-17  -1.35058321377351E-09  -4.36764579845951E-17   6.88351629218614E-10
      5.38257918483518E-17
      1.00000000000000E+04
      8.00000000000000E-01   0.00000000000000E+00  -2.06771747599451E+01   1.51920465508412E-13   8.21959655753565E-16
     -9.57633432327775E-15  -8.13163238433520E-16   2.01556584111327E-15  -8.79641732017582E-18  -1.19744219472872E-09
     -8.11266775519246E-16   2.45305975656433E-09   8.55563713270088E-16  -1.25710221611658E-09  -4.42969377484574E-17
      1.19743463371734E-09  -1.06928802344480E-17  -2.45453483424661E-09  -4.24004748341852E-17   1.25714185208211E-09
      5.30933550685178E-17
      1.00000000000000E+04
      8.00000000000000E-01   0.00000000000000E+00  -2.11771747599451E+01  -1.51920465508412E-13   8.20351363142112E-16
     -9.61530167066071E-15  -8.11849782413304E-16   1.99129567047244E-15  -8.50158072894305E-18  -2.02579554791792E-09
     -8.08751341858606E-16   4.16808989168879E-09   8.52258604010700E-16  -2.14086487222419E-09  -4.35072621497302E-17
      2.02578792393320E-09  -1.16000212836393E-17  -4.16665080484289E-09  -4.04088215950324E-17   2.14101512041005E-09
      5.20088428795392E-17
      1.00000000000000E+04
      8.00000000000000E-01   0.00000000000000E+00  -2.16771747599451E+01  -1.06344325855888E-12   8.19048793543179E-16
     -9.36690554910901E-15  -8.10869908449830E-16   1.81881088400351E-15  -8.17888509350108E-18  -3.19478011660328E-09
     -8.06178328048417E-16   6.58711946397923E-09   8.48574447654003E-16  -3.38913611182143E-09  -4.23961196028293E-17
      3.19477256773384E-09  -1.28704654949147E-17  -6.58390686077016E-09  -3.77045392014117E-17   3.38858598316513E-09
      5.05750046969016E-17
      1.00000000000000E+04
      8.00000000000000E-01   0.00000000000000E+00  -2.21771747599451E+01   0.00000000000000E+00   8.18007411392487E-16
     -8.98667895886793E-15  -8.10175014319786E-16   1.58794430693681E-15  -7.83239707284892E-18  -4.69999400317588E-09
     -8.03583884675174E-16   9.69085457431608E-09   8.44635533400593E-16  -4.99261808164777E-09  -4.10516487235846E-17
      4.69998660425444E-09  -1.44235267174622E-17  -9.69260309793635E-09  -3.44605190789726E-17   4.99271417846845E-09
      4.88840457971271E-17
      1.00000000000000E+04
      8.00000000000000E-01   0.00000000000000E+00  -2.26771747599451E+01   0.00000000000000E+00   8.17180332128619E-16
     -8.57230449165624E-15  -8.09706306682696E-16   1.35282373948103E-15  -7.47402544612775E-18  -6.48377952666911E-09
     -8.01057870072525E-16   1.33638356689130E-08   8.40672479319140E-16  -6.88249576086672E-09  -3.96146092437073E-17
      6.48377230644381E-09  -1.61224620562963E-17  -1.33662667144809E-08  -3.09661726335360E-17   6.88245284892758E-09
      4.70886346888915E-17
      1.00000000000000E+04
      8.00000000000000E-01   0.00000000000000E+00  -2.31771747599451E+01   3.03840931016824E-13   8.16522296178170E-16
     -8.20754703164559E-15  -8.09403926621025E-16   1.14949086736597E-15  -7.11836955728054E-18  -8.45816874953940E-09
     -7.98695658390328E-16   1.74138833589017E-08   8.36919711224468E-16  -8.95715498556524E-09  -3.82240528313938E-17
      8.45816169192914E-09  -1.78266377879690E-17  -1.74153155279723E-08  -2.75157846007050E-17   8.95768640777248E-09
      4.53424223877756E-17
      1.00000000000000E+04
      8.00000000000000E-01   0.00000000000000E+00  -2.36771747599451E+01  -6.07681862033647E-13   8.15993929692535E-16
     -7.92839171949154E-15  -8.09216081976996E-16   9.92215988311055E-16  -6.77784771569412E-18  -1.05341536394714E-08
     -7.96561283333818E-16   2.16532239489139E-08   8.33537712268528E-16  -1.11156872516483E-08  -3.69764289321373E-17
      1.05341467026886E-08  -1.94326463588635E-17  -2.16498329620938E-08  -2.43216302889680E-17   1.11152608589229E-08
      4.37542766464077E-17
      1.00000000000000E+04
      8.00000000000000E-01   0.00000000000000E+00  -2.41771747599451E+01   1.06344325855888E-12   8.15563827509389E-16
     -7.73026210367699E-15  -8.09103392909266E-16   8.75489701152792E-16  -6.46043460028515E-18  -1.26405243336861E-08
     -7.94678201802101E-16   2.59197583022522E-08   8.30594687287051E-16  -1.32790241526226E-08  -3.59164854821853E-17
      1.26405174779328E-08  -2.08856257074477E-17  -2.59195407550863E-08  -2.14912943750114E-17   1.32787602082282E-08
      4.23769200823419E-17
      1.00000000000000E+04
      8.00000000000000E-01   0.00000000000000E+00  -2.46771747599451E+01   1.51920465508412E-13   8.15208348904820E-16
     -7.58450165145600E-15  -8.09038566167488E-16   7.86055950187112E-16  -6.16978273744347E-18  -1.47290565624056E-08
     -7.93038909347111E-16   3.01267398331111E-08   8.28088540315504E-16  -1.53952564818541E-08  -3.50496309651215E-17
      1.47290497637172E-08  -2.21694395578237E-17  -3.01243054595476E-08  -1.90499741447207E-17   1.53950122927604E-08
      4.12194137025795E-17
      1.00000000000000E+04
      8.00000000000000E-01   0.00000000000000E+00  -2.51771747599451E+01  -1.51920465508412E-13   8.14910223512194E-16
     -7.46227304419222E-15  -8.09003803488871E-16   7.12222238333446E-16  -5.90642002349874E-18  -1.67714000480101E-08
     -7.91619075958975E-16   3.42085389003911E-08   8.25978257234174E-16  -1.74355111728485E-08  -3.43591812730488E-17
      1.67713932985772E-08  -2.32911475533930E-17  -3.42069037592191E-08  -1.69744537431381E-17   1.74350003036074E-08
      4.02656012965685E-17
      1.00000000000000E+04
      8.00000000000000E-01   0.00000000000000E+00  -2.56771747599451E+01  -1.51920465508412E-13   8.14656939022065E-16
     -7.34523482921025E-15  -8.08987914040164E-16   6.46826177756247E-16  -5.66902498203286E-18  -1.87533955377895E-08
     -7.90388474328024E-16   3.81390251840247E-08   8.24208102133076E-16  -1.93870609347789E-08  -3.38196278032051E-17
      1.87533888395970E-08  -2.42684646941787E-17  -3.81404491275901E-08  -1.52201880910347E-17   1.93864186830629E-08
      3.94886527844392E-17
      1.00000000000000E+04
      8.00000000000000E-01   0.00000000000000E+00  -2.61771747599451E+01  -1.51920465508412E-13   8.14439373453034E-16
     -7.22674333307450E-15  -8.08983992688924E-16   5.86573019853620E-16  -5.45538076428301E-18  -2.06698811005630E-08
     -7.89317280321997E-16   4.19177429226155E-08   8.22721646085759E-16  -2.12471719718191E-08  -3.34043657615126E-17
      2.06698744602691E-08  -2.51220931312123E-17  -4.19170458455548E-08  -1.37376533945589E-17   2.12469886241444E-08
      3.88597465257094E-17
      1.00000000000000E+04