DF-ISE text

Info {
  version   = 1.0
  type      = xyplot
  datasets  = [
    "frequency"
    "v(Ntop)" "v(Ptop)" "v(Pbot)" "a(Ntop,Ntop)" "c(Ntop,Ntop)"
    "a(Ntop,Ptop)" "c(Ntop,Ptop)" "a(Ntop,Pbot)" "c(Ntop,Pbot)" "a(Ptop,Ntop)"
    "c(Ptop,Ntop)" "a(Ptop,Ptop)" "c(Ptop,Ptop)" "a(Ptop,Pbot)" "c(Ptop,Pbot)"
    "a(Pbot,Ntop)" "c(Pbot,Ntop)" "a(Pbot,Ptop)" "c(Pbot,Ptop)" "a(Pbot,Pbot)"
    "c(Pbot,Pbot)" ]
  functions = [
    Frequency
    Voltage Voltage Voltage Admittance Capacitance
    Admittance Capacitance Admittance Capacitance Admittance
    Capacitance Admittance Capacitance Admittance Capacitance
    Admittance Capacitance Admittance Capacitance Admittance
    Capacitance ]
}

Data {
      1.00000000000000E+04
      8.00000000000000E-01   0.00000000000000E+00  -5.00000000000000E-02  -3.03840931016824E-13   1.46249757677576E-15
     -9.28539606846976E-15  -1.35731210551136E-15  -4.18150315338292E-15  -1.05185471264278E-16  -9.29974167533707E-15
     -1.35731210668189E-15   3.19032977567665E-12   1.35732491799537E-15   2.45416130274737E-16  -1.28113122586636E-20
     -4.16780863161396E-15  -1.05185470093757E-16   2.31723581165552E-16  -1.28124827831111E-20   0.00000000000000E+00
      1.05198282576104E-16
      1.00000000000000E+04
      8.00000000000000E-01   0.00000000000000E+00  -1.45555555555556E-01  -3.03840931016824E-13   1.45835417816156E-15
     -9.27630860387381E-15  -1.35729840402058E-15  -3.93903771698287E-15  -1.01055774140903E-16  -9.28899369688193E-15
     -1.35729840542507E-15   2.27880698262618E-12   1.35731629388145E-15   2.36153322509246E-16  -1.78884543838646E-20
     -3.92654842289259E-15  -1.01055772736436E-16   2.23676668281693E-16  -1.78898588650463E-20   0.00000000000000E+00
      1.01073662594740E-16
      1.00000000000000E+04
      8.00000000000000E-01   0.00000000000000E+00  -3.28172839506173E-01  -4.55761396525235E-13   1.45162541802638E-15
     -9.26305111343468E-15  -1.35725671151658E-15  -3.56110571734077E-15  -9.43687065097450E-17  -9.27268766710369E-15
     -1.35725671330871E-15   9.11522793050471E-13   1.35728954417854E-15   2.21287980672726E-16  -3.28308681766567E-20
     -3.55175546040346E-15  -9.43687047176307E-17   2.11940232913405E-16  -3.28326602951007E-20   3.03840931016824E-13
      9.44015373777425E-17
      1.00000000000000E+04
      8.00000000000000E-01   0.00000000000000E+00  -6.77174759945130E-01  -3.03840931016824E-13   1.44168332925342E-15
     -9.25158747823960E-15  -1.35707119215898E-15  -3.05703214278788E-15  -8.46121370944082E-17  -9.24990853766990E-15
     -1.35707119455031E-15   2.88648884465982E-12   1.35716656805601E-15   2.00123560098810E-16  -9.53735033933589E-20
     -3.05856535456598E-15  -8.46121347030868E-17   2.01657309812265E-16  -9.53758947169964E-20   4.55761396525235E-13
      8.47075105972133E-17
      1.00000000000000E+04
      8.00000000000000E-01   0.00000000000000E+00  -1.17717475994513E+00   0.00000000000000E+00   1.43087673425367E-15
     -9.28186423383065E-15  -1.35617974730308E-15  -2.56176849235800E-15  -7.46969869506014E-17  -9.23743334209886E-15
     -1.35617975052400E-15   1.51920465508412E-13   1.35654822192671E-15   1.79926745930239E-16  -3.68471400639199E-19
     -2.60574669354215E-15  -7.46969837296927E-17   2.23902717232139E-16  -3.68474621547608E-19  -1.51920465508412E-13
      7.50654583513529E-17
      1.00000000000000E+04
      8.00000000000000E-01   0.00000000000000E+00  -1.67717475994513E+00  -3.03840931016824E-13   1.42058178245789E-15
     -9.41059047375575E-15  -1.35320819059539E-15  -2.16410017144742E-15  -6.73735918625029E-17  -9.24667097570605E-15
     -1.35320819516774E-15   7.59602327542059E-13   1.35436952128536E-15   1.66086244400565E-16  -1.16132611563187E-18
     -2.32779731327001E-15  -6.73735872901548E-17   3.29784995757627E-16  -1.16133068798056E-18  -6.07681862033647E-13
      6.85349179784860E-17
      1.00000000000000E+04
      8.00000000000000E-01   0.00000000000000E+00  -2.17717475994513E+00   0.00000000000000E+00   1.40683899747750E-15
     -9.66243841716620E-15  -1.34526240982630E-15  -1.71084192163236E-15  -6.15765876511220E-17  -9.26095179591199E-15
     -1.34526241664315E-15   1.21536372406729E-12   1.34816180454355E-15   1.54514885338470E-16  -2.89938789802538E-18
     -2.11258429732756E-15  -6.15765808342706E-17   5.56248473042800E-16  -2.89939471487689E-18  -3.03840931016824E-13
      6.44759755490227E-17
      1.00000000000000E+04
      8.00000000000000E-01   0.00000000000000E+00  -2.67717475994513E+00  -3.03840931016824E-13   1.38446289016615E-15
     -9.98649969927182E-15  -1.32841935876128E-15  -1.28614889707055E-15  -5.60435314048502E-17  -9.22769615311510E-15
     -1.32841936860256E-15   1.51920465508412E-12   1.33432847449869E-15   1.38208749358964E-16  -5.90910589474925E-18
     -2.04531188074160E-15  -5.60435215635665E-17   8.97374429357523E-16  -5.90911573603360E-18   0.00000000000000E+00
      6.19526372995161E-17
      1.00000000000000E+04
      8.00000000000000E-01   0.00000000000000E+00  -3.17717475994513E+00   0.00000000000000E+00   1.35187281055869E-15
     -1.03908218399116E-14  -1.30152758770359E-15  -1.08632959818607E-15  -5.03452228550721E-17  -9.12142192669932E-15
     -1.30152760122489E-15   1.67112512059253E-12   1.31147996207339E-15   1.15485831596510E-16  -9.95236084620487E-18
     -2.35642020412102E-15  -5.03452093337730E-17   1.38558282962341E-15  -9.95237436750504E-18   0.00000000000000E+00
      6.02975837009666E-17
      1.00000000000000E+04
      8.00000000000000E-01   0.00000000000000E+00  -3.67717475994513E+00  -3.03840931016824E-13   1.31621256277679E-15
     -1.06010549299398E-14  -1.27101899912583E-15  -8.29115069643785E-16  -4.51935636509835E-17  -9.03470517913441E-15
     -1.27101901377877E-15  -3.03840931016824E-13   1.28504404078810E-15   9.78953697835577E-17  -1.40250270063572E-17
     -2.39529544067599E-15  -4.51935489980668E-17   1.66407993973841E-15  -1.40250416592748E-17  -1.51920465508412E-13
      5.92185906572281E-17
      1.00000000000000E+04
      8.00000000000000E-01   0.00000000000000E+00  -4.17717475994513E+00   4.55761396525235E-13   1.28628614156225E-15
     -1.06521912411636E-14  -1.24504139836895E-15  -6.37981515850574E-16  -4.12447431932931E-17  -9.05608696759430E-15
     -1.24504141174208E-15   4.55761396525235E-13   1.26231870997281E-15   9.29905245344367E-17  -1.72772982291500E-17
     -2.23379767758303E-15  -4.12447298201711E-17   1.68880503277216E-15  -1.72773116022722E-17  -3.03840931016824E-13
      5.85220414223207E-17
      1.00000000000000E+04
      8.00000000000000E-01   0.00000000000000E+00  -4.67717475994513E+00  -3.03840931016824E-13   1.26386576947470E-15
     -1.04540905943760E-14  -1.22547468282503E-15  -4.87568792435946E-16  -3.83910866496803E-17  -9.06761456119687E-15
     -1.22547469338400E-15   4.25377303423553E-12   1.24513866740372E-15   8.87576164460968E-17  -1.96639740182231E-17
     -1.87399189956885E-15  -3.83910760907167E-17   1.47517678503665E-15  -1.96639845771869E-17   0.00000000000000E+00
      5.80550606678932E-17
      1.00000000000000E+04
      8.00000000000000E-01   0.00000000000000E+00  -5.17717475994513E+00  -6.07681862033647E-13   1.24678241608028E-15
     -9.93092630723737E-15  -1.21054338475918E-15  -3.60599914255386E-16  -3.62390313211418E-17  -8.88883082469597E-15
     -1.21054339203339E-15   1.82304558610094E-12   1.23201878609227E-15   6.96096973464396E-17  -2.14753940577131E-17
     -1.40269656262644E-15  -3.62390240469356E-17   1.11170809071420E-15  -2.14754013319194E-17   4.55761396525235E-13
      5.77144253782118E-17
      1.00000000000000E+04
      8.00000000000000E-01   0.00000000000000E+00  -5.67717475994513E+00  -1.51920465508412E-13   1.23296777255353E-15
     -9.32306137247015E-15  -1.19846865852857E-15  -2.59672058166268E-16  -3.44991140249627E-17  -8.60903226467943E-15
     -1.19846866316642E-15   9.11522793050471E-13   1.22141366064882E-15   4.40175535782320E-17  -2.29449974810133E-17
     -9.74401211672794E-16  -3.44991093871098E-17   7.58757660359532E-16  -2.29450021188664E-17   0.00000000000000E+00
      5.74441115056278E-17
      1.00000000000000E+04
      8.00000000000000E-01   0.00000000000000E+00  -6.17717475994513E+00  -1.51920465508412E-13   1.22118253166765E-15
     -8.88218557407265E-15  -1.18817247264457E-15  -1.93413475170205E-16  -3.30100590230715E-17  -8.39048165688612E-15
     -1.18817247567837E-15   1.97496605160935E-12   1.21237833345561E-15   2.52474986113071E-17  -2.42058577746965E-17
     -6.84977955871783E-16  -3.30100559892785E-17   5.16805860664851E-16  -2.42058608084898E-17  -6.07681862033647E-13
      5.72159167970808E-17
      1.00000000000000E+04
      8.00000000000000E-01   0.00000000000000E+00  -6.67717475994513E+00  -1.51920465508412E-13   1.21073903966703E-15
     -8.60732443183555E-15  -1.17905394322898E-15  -1.52328187401978E-16  -3.16850964379590E-17  -8.25117466450647E-15
     -1.17905394536227E-15   0.00000000000000E+00   1.20438413814368E-15   1.37626698649240E-17  -2.53301927792069E-17
     -5.08434855075779E-16  -3.16850943046729E-17   3.69887025546942E-16  -2.53301949124930E-17   3.03840931016824E-13
      5.70152892174879E-17
      1.00000000000000E+04
      8.00000000000000E-01   0.00000000000000E+00  -7.17717475994513E+00   0.00000000000000E+00   1.20124182069901E-15
     -8.43497211691853E-15  -1.17076650602285E-15  -1.25070244114723E-16  -3.04753146761721E-17  -8.16221547751905E-15
     -1.17076650762655E-15   1.51920465508412E-13   1.19712542375228E-15   6.49650104227619E-18  -2.63589161237865E-17
     -3.98254511745871E-16  -3.04753130724767E-17   2.79687467485305E-16  -2.63589177274821E-17   4.55761396525235E-13
      5.68342307996613E-17
      1.00000000000000E+04
      8.00000000000000E-01   0.00000000000000E+00  -7.67717475994513E+00  -1.51920465508412E-13   1.19244780196812E-15
     -8.32084377573179E-15  -1.16309651357676E-15  -1.05041707972660E-16  -2.93512883913785E-17  -8.10084329763724E-15
     -1.16309651484355E-15   1.51920465508412E-13   1.19041327345128E-15   1.40010815258323E-18  -2.73167586053542E-17
     -3.25279594022321E-16  -2.93512871245959E-17   2.21627950291422E-16  -2.73167598721371E-17  -1.51920465508412E-13
      5.66680469959084E-17
      1.00000000000000E+04
      8.00000000000000E-01   0.00000000000000E+00  -8.17717475994513E+00  -3.03840931016824E-13   1.18419780081251E-15
     -8.24080372448622E-15  -1.15590351243485E-15  -8.92851044169016E-17  -2.82942883776518E-17  -8.05560794959818E-15
     -1.15590351347179E-15   3.19032977567665E-12   1.18412306258586E-15  -2.54554202113669E-18  -2.82195491122554E-17
     -2.74560864182269E-16  -2.82942873407111E-17   1.82748516932063E-16  -2.82195501491961E-17   0.00000000000000E+00
      5.65138374901490E-17
      1.00000000000000E+04
      8.00000000000000E-01   0.00000000000000E+00  -8.67717475994513E+00  -6.07681862033647E-13   1.17638225244709E-15
     -8.18186595109182E-15  -1.14909035664322E-15  -7.66310679333185E-17  -2.72918958038168E-17  -8.02051653504876E-15
     -1.14909035751425E-15   0.00000000000000E+00   1.17816820838572E-15  -5.84485783617255E-18  -2.90778508697101E-17
     -2.38325229030974E-16  -2.72918949327863E-17   1.55849814868122E-16  -2.90778517407405E-17  -6.07681862033647E-13
      5.63697466734785E-17
      1.00000000000000E+04
      8.00000000000000E-01   0.00000000000000E+00  -9.17717475994513E+00  -3.03840931016824E-13   1.16892287938808E-15
     -8.13632648747752E-15  -1.14258725521705E-15  -6.63505700582571E-17  -2.63356241710200E-17  -7.99192213967590E-15
     -1.14258725596120E-15  -3.03840931016824E-13   1.17248618526291E-15  -8.76353782282631E-18  -2.98989292997814E-17
     -2.11107602626270E-16  -2.63356234268677E-17   1.35981861603237E-16  -2.98989300439337E-17  -1.51920465508412E-13
      5.62345534703578E-17
      1.00000000000000E+04
      8.00000000000000E-01   0.00000000000000E+00  -9.67717475994513E+00  -4.55761396525235E-13   1.16176210418200E-15
     -8.09994079291189E-15  -1.13634258584864E-15  -5.79882202177392E-17  -2.54195183333514E-17  -7.96857422551526E-15
     -1.13634258649067E-15   1.21536372406729E-12   1.16703049574816E-15  -1.14900103328749E-17  -3.06879092548905E-17
     -1.89499949252576E-16  -2.54195176913254E-17   1.20042433109156E-16  -3.06879098969165E-17  -1.51920465508412E-13
      5.61074275882528E-17
      1.00000000000000E+04
      8.00000000000000E-01   0.00000000000000E+00  -1.01771747599451E+01   0.00000000000000E+00   1.15485657554369E-15
     -8.06977163712449E-15  -1.13031728553647E-15  -5.13139555583268E-17  -2.45392900071356E-17  -7.94947954410901E-15
     -1.13031728609241E-15   0.00000000000000E+00   1.16176577632544E-15  -1.43236111465930E-17  -3.14484902312996E-17
     -1.71634790347526E-16  -2.45392894512011E-17   1.05993882291257E-16  -3.14484907872342E-17  -3.03840931016824E-13
      5.59877802386093E-17
      1.00000000000000E+04
      8.00000000000000E-01   0.00000000000000E+00  -1.06771747599451E+01  -1.51920465508412E-13   1.14817310888828E-15
     -8.04476629686777E-15  -1.12448132650310E-15  -4.62507288169967E-17  -2.36917823851279E-17  -7.93552290240655E-15
     -1.12448132698104E-15   3.03840931016824E-13   1.15666471909325E-15  -1.80826078403936E-17  -3.21833921101089E-17
     -1.55583865794723E-16  -2.36917819071805E-17   9.12514268087855E-17  -3.21833925880561E-17   0.00000000000000E+00
      5.58751744949381E-17
      1.00000000000000E+04
      8.00000000000000E-01   0.00000000000000E+00  -1.11771747599451E+01  -4.55761396525235E-13   1.14168613889159E-15
     -8.02475594434931E-15  -1.11881149418125E-15  -4.25563214561658E-17  -2.28746447102681E-17  -7.93217520733508E-15
     -1.11881149457139E-15   1.51920465508412E-13   1.15170612347853E-15  -2.54034391941488E-17  -3.28946289048631E-17
     -1.34851559098665E-16  -2.28746443201340E-17   6.69039106949365E-17  -3.28946292949970E-17  -3.03840931016824E-13
      5.57692736142475E-17
      1.00000000000000E+04
      8.00000000000000E-01   0.00000000000000E+00  -1.16771747599451E+01  -4.55761396525235E-13   1.13537613539329E-15
     -8.00566623202333E-15  -1.11328999833776E-15  -3.96756860863347E-17  -2.20861370555374E-17  -7.95695952640066E-15
     -1.11328999858082E-15   1.82304558610094E-12   1.14687367357160E-15  -4.48785252838551E-17  -3.35836749890675E-17
     -8.88281717406515E-17  -2.20861368124809E-17   4.27749295888469E-18  -3.35836752321239E-17   1.51920465508412E-13
      5.56698120441328E-17
      1.00000000000000E+04
      8.00000000000000E-01   0.00000000000000E+00  -1.21771747599451E+01  -3.03840931016824E-13   1.12922862643935E-15
     -7.99011794543789E-15  -1.10790361524926E-15  -3.73141746319103E-17  -2.13250111900834E-17  -8.06781924565843E-15
     -1.10790361515206E-15  -1.06344325855888E-12   1.14215518276539E-15  -1.03822057432659E-16  -3.42515676119621E-17
      4.00882445226129E-17  -2.13250112872784E-17  -1.81235093042757E-16  -3.42515675147671E-17   1.51920465508412E-13
      5.55765788018341E-17
      1.00000000000000E+04
      8.00000000000000E-01   0.00000000000000E+00  -1.26771747599451E+01   0.00000000000000E+00   1.12323359765163E-15
     -7.97533813960646E-15  -1.10264316444034E-15  -3.52862401193362E-17  -2.05904332113088E-17  -8.43528307620936E-15
     -1.10264316342081E-15   9.11522793050471E-13   1.13754213724358E-15  -2.88302021851166E-16  -3.48989738207658E-17
      4.24371396496198E-16  -2.05904342308378E-17  -7.47984259353180E-16  -3.48989728012369E-17   3.03840931016824E-13
      5.54894070311597E-17
      1.00000000000000E+04
      8.00000000000000E-01   0.00000000000000E+00  -1.31771747599451E+01  -3.03840931016824E-13   1.11738511968466E-15
     -7.96276176448776E-15  -1.09750319204392E-15  -3.34226177292638E-17  -1.98819276407388E-17  -9.57269521346886E-15
     -1.09750318839695E-15  -1.67112512059253E-12   1.13302942713363E-15  -8.64601693836116E-16  -3.55262387346591E-17
      1.57706845707978E-15  -1.98819312877079E-17  -2.47511050310459E-15  -3.55262350876901E-17   4.55761396525235E-13
      5.54081663759117E-17
      1.00000000000000E+04
      8.00000000000000E-01   0.00000000000000E+00  -1.36771747599451E+01   0.00000000000000E+00   1.11168110432355E-15
     -7.95040778895248E-15  -1.09248177322513E-15  -3.15581295561904E-17  -1.91993310984485E-17  -1.29675595408617E-14
     -1.09248176208190E-15   3.03840931016824E-13   1.12861518731757E-15  -2.63439022944742E-15  -3.61334252333405E-17
      4.98513968316236E-15  -1.91993422416696E-17  -7.65111151790276E-15  -3.61334140901194E-17   1.51920465508412E-13
      5.53327563318313E-17
      1.00000000000000E+04
      8.00000000000000E-01   0.00000000000000E+00  -1.41771747599451E+01  -3.03840931016824E-13   1.10612311458745E-15
     -7.93994134067307E-15  -1.08758036662644E-15  -2.95061760033733E-17  -1.85427479609915E-17  -2.28203400200671E-14
     -1.08758033441821E-15   0.00000000000000E+00   1.12430068565472E-15  -7.94865496029421E-15  -3.67203512344017E-17
      1.48504329548643E-14  -1.85427801692120E-17  -2.28285894517088E-14  -3.67203190261813E-17  -4.55761396525235E-13
      5.52630991948546E-17
      1.00000000000000E+04
      8.00000000000000E-01   0.00000000000000E+00  -1.46771747599451E+01   0.00000000000000E+00   1.10071616556200E-15
     -7.93154971981796E-15  -1.08280366321934E-15  -2.70827154658885E-17  -1.79125023426517E-17  -5.06858854608925E-14
     -1.08280357307397E-15  -6.07681862033647E-13   1.12009020115128E-15  -2.35114160268908E-14  -3.72866280759583E-17
      4.27271829750838E-14  -1.79125924880257E-17  -6.62656872913193E-14  -3.72865379305844E-17   9.11522793050471E-13
      5.51991304178393E-17
      1.00000000000000E+04
      8.00000000000000E-01   0.00000000000000E+00  -1.51771747599451E+01  -3.03840931016824E-13   1.09546845957312E-15
     -7.92456342806271E-15  -1.07815937802784E-15  -2.40114740121963E-17  -1.73090815453320E-17  -1.27429016244170E-13
     -1.07815913238753E-15  -1.67112512059253E-12   1.11599083257624E-15  -6.78758476088204E-14  -3.78317001869139E-17
      1.19480252331603E-13  -1.73093271856398E-17  -1.87380127013997E-13  -3.78314545466062E-17  -1.51920465508412E-13
      5.51407817331335E-17
      1.00000000000000E+04
      8.00000000000000E-01   0.00000000000000E+00  -1.56771747599451E+01   3.03840931016824E-13   1.09039100860772E-15
     -7.92100240376062E-15  -1.07365794233806E-15  -1.97948194873295E-17  -1.67330662696106E-17  -3.32996913986219E-13
     -1.07365729030336E-15   3.03840931016824E-13   1.11201217013471E-15  -1.90774596901032E-13  -3.83548798279713E-17
      3.25055541325826E-13  -1.67337183043145E-17  -5.15849933401151E-13  -3.83542277932674E-17  -3.03840931016824E-13
      5.50879460972578E-17
      1.00000000000000E+04
      8.00000000000000E-01   0.00000000000000E+00  -1.61771747599451E+01   0.00000000000000E+00   1.08549711391991E-15
     -7.92380524614976E-15  -1.06931207179721E-15  -1.33948063388402E-17  -1.61850421227152E-17  -8.67783080027833E-13
     -1.06931038728717E-15   5.62105722381124E-12   1.10816574465238E-15  -5.21055762568426E-13  -3.88553573628872E-17
      8.59846218587229E-13  -1.61867266327582E-17  -1.38091537966680E-12  -3.88536728528443E-17   7.59602327542059E-13
      5.50403994857684E-17
      1.00000000000000E+04
      8.00000000000000E-01   0.00000000000000E+00  -1.66771747599451E+01  -7.59602327542059E-13   1.08080170157827E-15
     -7.93771714335908E-15  -1.06513621723970E-15  -2.52652673279032E-18  -1.56654843384772E-17  -2.21681781895706E-12
     -1.06513198740382E-15   4.40569349974394E-12   1.10446412800157E-15  -1.38059681767860E-12  -3.93321405959978E-17
      2.20887799787524E-12  -1.56697141743570E-17  -3.58947733975171E-12  -3.93279107601181E-17   1.21536372406729E-12
      5.49976249345363E-17
      1.00000000000000E+04
      8.00000000000000E-01   0.00000000000000E+00  -1.71771747599451E+01   4.55761396525235E-13   1.07632055553461E-15
     -7.97581169613020E-15  -1.06114595399510E-15   1.78458255179779E-17  -1.51746015394736E-17  -5.51071872265011E-12
     -1.06113564687368E-15   6.98834141338694E-12   1.10091947243641E-15  -3.54256253639106E-12  -3.97838255598210E-17
      5.50276056048709E-12  -1.51849086609022E-17  -9.04530524723231E-12  -3.97735184383924E-17   3.79801163771029E-12
      5.49584270988885E-17
      1.00000000000000E+04
      8.00000000000000E-01   0.00000000000000E+00  -1.76771747599451E+01   1.51920465508412E-13   1.07206954529525E-15
     -8.06451240758786E-15  -1.05735743214575E-15   5.84159629809426E-17  -1.47121131494906E-17  -1.32794960530459E-11
     -1.05733310261229E-15   2.06611833091440E-11   1.09754111517266E-15  -8.78662574143482E-12  -4.02080125585756E-17
      1.32714901429461E-11  -1.47364426829525E-17  -2.20580574568904E-11  -4.01836830251136E-17   8.81138699948788E-12
      5.49201257082538E-17
      1.00000000000000E+04
      8.00000000000000E-01   0.00000000000000E+00  -1.81771747599451E+01   3.03840931016824E-13   1.06806400505759E-15
     -8.25504389347767E-15  -1.05378708599744E-15   1.40101552132360E-16  -1.42769190601456E-17  -3.09346075246150E-11
     -1.05373157430587E-15   5.21087196693852E-11   1.09433162415695E-15  -2.10207906419611E-11  -4.06000498490642E-17
      3.09264926449454E-11  -1.43324307517151E-17  -5.19471431961687E-11  -4.05445381574946E-17   2.12688651711777E-11
      5.48769689090151E-17
      1.00000000000000E+04
      8.00000000000000E-01   0.00000000000000E+00  -1.86771747599451E+01  -3.03840931016824E-13   1.06431846266307E-15
     -8.63026996879189E-15  -1.05045185532614E-15   2.98230170491167E-16  -1.38666073370163E-17  -6.94718624163016E-11
     -1.05032975218875E-15   1.18801804027578E-10   1.09128040213816E-15  -4.83809455549837E-11  -4.09506499468253E-17
      6.94635303435728E-11  -1.39887104744133E-17  -1.17844177677277E-10  -4.08285468094282E-17   4.80068671006581E-11
      5.48172572826112E-17
      1.00000000000000E+04
      8.00000000000000E-01   0.00000000000000E+00  -1.91771747599451E+01  -4.55761396525235E-13   1.06084688993467E-15
     -9.29443018232198E-15  -1.04737012691032E-15   5.76521068786294E-16  -1.34767630243644E-17  -1.49923260083727E-10
     -1.04711211686662E-15   2.56441745778199E-10   1.08835406047619E-15  -1.06777583259211E-10  -4.12419436080406E-17
      1.49914542215329E-10  -1.37347730680748E-17  -2.56691548959333E-10  -4.09839335643301E-17   1.07103928183430E-10
      5.47187066323207E-17
      1.00000000000000E+04
      8.00000000000000E-01   0.00000000000000E+00  -1.96771747599451E+01   1.51920465508412E-13   1.05766345796421E-15
     -1.02816005362045E-14  -1.04456330884857E-15   9.90095730683938E-16  -1.31001491156543E-17  -3.09625116512850E-10
     -1.04404202231797E-15   5.33392754400034E-10   1.08548416741377E-15  -2.25028144671572E-10  -4.14421450935584E-17
      3.09615824365131E-10  -1.36214356462556E-17  -5.34642978977949E-10  -4.09208585629566E-17   2.25601891279992E-10
      5.45422942096277E-17
      1.00000000000000E+04
      8.00000000000000E-01   0.00000000000000E+00  -2.01771747599451E+01  -1.51920465508412E-13   1.05478331307504E-15
     -1.14094227392237E-14  -1.04205719646266E-15   1.45919387133726E-15  -1.27261166124256E-17  -6.08747288035615E-10
     -1.04105631806515E-15   1.06010100831770E-09   1.08255725357963E-15  -4.50422477095296E-10  -4.15009355127845E-17
      6.08737337466105E-10  -1.37269950099374E-17  -1.05915835538814E-09  -4.05000571152720E-17   4.51203782559983E-10
      5.42270521248812E-17
      1.00000000000000E+04
      8.00000000000000E-01   0.00000000000000E+00  -2.06771747599451E+01  -6.07681862033647E-13   1.05222215662076E-15
     -1.22767592068520E-14  -1.03988108995871E-15   1.80899887532648E-15  -1.23410666619723E-17  -1.13230059509825E-09
     -1.03806843475368E-15   1.98651200698799E-09   1.07941966341634E-15  -8.50878300650053E-10  -4.13512286611681E-17
      1.13229012724158E-09  -1.41537218670037E-17  -1.98316661890957E-09  -3.95385734561350E-17   8.50602686381598E-10
      5.36922953232768E-17
      1.00000000000000E+04
      8.00000000000000E-01   0.00000000000000E+00  -2.11771747599451E+01   0.00000000000000E+00   1.04999297165268E-15
     -1.26096038817646E-14  -1.03806192052685E-15   1.91823638630830E-15  -1.19310511258545E-17  -1.97968599305561E-09
     -1.03498946035677E-15   3.48763812667661E-09   1.07591498375932E-15  -1.50702916128510E-09  -4.09255233995250E-17
      1.97967530145159E-09  -1.50035112959301E-17  -3.48670254451383E-09  -3.78530632294475E-17   1.50735485877446E-09
      5.28565745252407E-17
      1.00000000000000E+04
      8.00000000000000E-01   0.00000000000000E+00  -2.16771747599451E+01   3.03840931016824E-13   1.04809940017669E-15
     -1.25025516191060E-14  -1.03661267510477E-15   1.82912265447385E-15  -1.14867250719204E-17  -3.23665429665605E-09
     -1.03176873547600E-15   5.72588234501204E-09   1.07195767581431E-15  -2.48954091107040E-09  -4.01889403355281E-17
      3.23664362265110E-09  -1.63306647006904E-17  -5.72618270457385E-09  -3.53450007067571E-17   2.48967258875185E-09
      5.16756654073147E-17
      1.00000000000000E+04
      8.00000000000000E-01   0.00000000000000E+00  -2.21771747599451E+01  -4.55761396525235E-13   1.04652862856974E-15
     -1.21847640557674E-14  -1.03552017757431E-15   1.64870034654972E-15  -1.10084509953966E-17  -4.93858577790442E-09
     -1.02843287221574E-15   8.76641854169739E-09   1.06760509170363E-15  -3.82845793053480E-09  -3.91722194855041E-17
      4.93857524155232E-09  -1.80957563539702E-17  -8.76703152335223E-09  -3.20849141269293E-17   3.82809188988096E-09
      5.01806704804176E-17
      1.00000000000000E+04
      8.00000000000000E-01   0.00000000000000E+00  -2.26771747599451E+01   3.03840931016824E-13   1.04524922819288E-15
     -1.17793230593109E-14  -1.03474160428596E-15   1.44056861455240E-15  -1.05076239069559E-17  -7.04931619512798E-09
     -1.02508783401592E-15   1.25445285984261E-08   1.06306271471483E-15  -5.49466767268228E-09  -3.79748806971189E-17
      7.04930585632013E-09  -2.01613941769902E-17  -1.25439720884182E-08  -2.83211104270802E-17   5.49465939650824E-09
      4.84825046038677E-17
      1.00000000000000E+04
      8.00000000000000E-01   0.00000000000000E+00  -2.31771747599451E+01   0.00000000000000E+00   1.04421667536697E-15
     -1.13507529744955E-14  -1.03421413635253E-15   1.23559200679326E-15  -1.00025390143281E-17  -9.47328177111454E-09
     -1.02187463057873E-15   1.68832251728808E-08   1.05860368941713E-15  -7.40905108010153E-09  -3.67290588361992E-17
      9.47327165567692E-09  -2.23420447881272E-17  -1.68823215001924E-08  -2.43895530623907E-17   7.40931302331075E-09
      4.67315978502078E-17
      1.00000000000000E+04
      8.00000000000000E-01   0.00000000000000E+00  -2.36771747599451E+01  -6.07681862033647E-13   1.04338306992143E-15
     -1.09645021294033E-14  -1.03387134276613E-15   1.05685152779732E-15  -9.51172715534016E-18  -1.20913538435721E-08
     -1.01891253673949E-15   2.15654139198501E-08   1.05446376985897E-15  -9.47207985032665E-09  -3.55512331163340E-17
      1.20913439354571E-08  -2.44705331819724E-17  -2.15634227289368E-08  -2.05924270896907E-17   9.47239294491498E-09
      4.50629602718813E-17
      1.00000000000000E+04
      8.00000000000000E-01   0.00000000000000E+00  -2.41771747599451E+01  -1.51920465508412E-13   1.04270520706643E-15
     -1.06602870059819E-14  -1.03365613358177E-15   9.15832133292469E-16  -9.04907348466447E-18  -1.47949830034564E-08
     -1.01626811824723E-15   2.63898002225352E-08   1.05078256660429E-15  -1.15926738857650E-08  -3.45144483543222E-17
      1.47949732584171E-08  -2.64370888192234E-17  -2.63876462283963E-08  -1.71264330197446E-17   1.15928988024814E-08
      4.35635218385393E-17
      1.00000000000000E+04
      8.00000000000000E-01   0.00000000000000E+00  -2.46771747599451E+01   3.03840931016824E-13   1.04214824326715E-15
     -1.04406594360130E-14  -1.03352587163198E-15   8.10161017633056E-16  -8.62237163518511E-18  -1.75034097734406E-08
     -1.01395646760155E-15   3.12071981838069E-08   1.04760411905083E-15  -1.37030658412226E-08  -3.36476514471786E-17
      1.75034001427220E-08  -2.81917756656250E-17  -3.12064651738207E-08  -1.40782474167119E-17   1.37027702274622E-08
      4.22700230831239E-17
      1.00000000000000E+04
      8.00000000000000E-01   0.00000000000000E+00  -2.51771747599451E+01   1.51920465508412E-13   1.04168579862156E-15
     -1.02819847281820E-14  -1.03345152558490E-15   7.30331727924234E-16  -8.23427303671777E-18  -2.01652661169098E-08
     -1.01195840763990E-15   3.59246324787741E-08   1.04490759139342E-15  -1.57604114831170E-08  -3.29491837513119E-17
      2.01652565650019E-08  -2.97273909817189E-17  -3.59256673178230E-08  -1.14560658062794E-17   1.57597733304461E-08
      4.11834567873004E-17
      1.00000000000000E+04
      8.00000000000000E-01   0.00000000000000E+00  -2.56771747599451E+01  -3.03840931016824E-13   1.04129843144450E-15
     -1.01574195545601E-14  -1.03341441387345E-15   6.66586125681841E-16  -7.88401757108334E-18  -2.27525080987148E-08
     -1.01023825183817E-15   4.04940962403362E-08   1.04263969045857E-15  -1.77417475294697E-08  -3.24014386197130E-17
      2.27524986074386E-08  -3.10601796063701E-17  -4.04942454703664E-08  -9.22527658440535E-18   1.77412719620723E-08
      4.02854561892106E-17
      1.00000000000000E+04
      8.00000000000000E-01   0.00000000000000E+00  -2.61771747599451E+01   1.51920465508412E-13   1.04097184205616E-15
     -1.00485061209411E-14  -1.03340286209290E-15   6.11964365030287E-16  -7.56897996328730E-18  -2.52529047245940E-08
     -1.00875593180748E-15   4.48885476256325E-08   1.04073711131704E-15  -1.96376142931908E-08  -3.19811795072891E-17
      2.52528952877652E-08  -3.22159102486942E-17  -4.48905089690036E-08  -7.33424922186313E-18   1.96373912920828E-08
      3.95501594696905E-17
      1.00000000000000E+04