DF-ISE text

Info {
  version   = 1.0
  type      = xyplot
  datasets  = [
    "frequency"
    "v(Ntop)" "v(Ptop)" "v(Pbot)" "a(Ntop,Ntop)" "c(Ntop,Ntop)"
    "a(Ntop,Ptop)" "c(Ntop,Ptop)" "a(Ntop,Pbot)" "c(Ntop,Pbot)" "a(Ptop,Ntop)"
    "c(Ptop,Ntop)" "a(Ptop,Ptop)" "c(Ptop,Ptop)" "a(Ptop,Pbot)" "c(Ptop,Pbot)"
    "a(Pbot,Ntop)" "c(Pbot,Ntop)" "a(Pbot,Ptop)" "c(Pbot,Ptop)" "a(Pbot,Pbot)"
    "c(Pbot,Pbot)" ]
  functions = [
    Frequency
    Voltage Voltage Voltage Admittance Capacitance
    Admittance Capacitance Admittance Capacitance Admittance
    Capacitance Admittance Capacitance Admittance Capacitance
    Admittance Capacitance Admittance Capacitance Admittance
    Capacitance ]
}

Data {
      1.00000000000000E+04
      8.00000000000000E-01   0.00000000000000E+00  -5.00000000000000E-02  -6.07681862033647E-13   1.28898520381403E-15
     -2.15419807750482E-15  -1.18380097017716E-15  -4.25559699277466E-15  -1.05184233636973E-16  -2.16854486837598E-15
     -1.18380097171942E-15   2.73456837915141E-12   1.18381461284946E-15   3.05762236286112E-16  -1.36411274442742E-20
     -4.24155715620914E-15  -1.05184232094714E-16   2.91722540492712E-16  -1.36426697049005E-20  -1.51920465508412E-13
      1.05197874763980E-16
      1.00000000000000E+04
      8.00000000000000E-01   0.00000000000000E+00  -1.45555555555556E-01  -3.03840931016824E-13   1.28484027604560E-15
     -2.14306757570224E-15  -1.18378621006418E-15  -4.00973773309502E-15  -1.01054065981527E-16  -2.15540363353766E-15
     -1.18378621184927E-15  -3.03840931016824E-13   1.18380525917097E-15   2.94132071161022E-16  -1.90473192826320E-20
     -3.99693935681249E-15  -1.01054064196455E-16   2.81342036312637E-16  -1.90491043637097E-20   3.03840931016824E-13
      1.01073113300862E-16
      1.00000000000000E+04
      8.00000000000000E-01   0.00000000000000E+00  -3.28172839506173E-01   1.51920465508412E-13   1.27810691343245E-15
     -2.12524099984115E-15  -1.18374128234883E-15  -3.62642881532056E-15  -9.43656310837425E-17  -2.13501415687658E-15
     -1.18374128453679E-15   7.59602327542059E-13   1.18377624415886E-15   2.75440542341360E-16  -3.49596194797175E-20
     -3.61688559005961E-15  -9.43656288957786E-17   2.65895618815004E-16  -3.49618074427261E-20  -6.07681862033647E-13
      9.44005907032717E-17
      1.00000000000000E+04
      8.00000000000000E-01   0.00000000000000E+00  -6.77174759945130E-01  -3.03840931016824E-13   1.26814468029658E-15
     -2.10925399772913E-15  -1.18354122626901E-15  -3.11487685863939E-15  -8.46034540276243E-17  -2.10744632958438E-15
     -1.18354122908333E-15   7.59602327542059E-13   1.18364281268345E-15   2.48729848226225E-16  -1.01583597143060E-19
     -3.11675472558340E-15  -8.46034512133312E-17   2.50620360804448E-16  -1.01586411445085E-19  -1.51920465508412E-13
      8.47050376246017E-17
      1.00000000000000E+04
      8.00000000000000E-01   0.00000000000000E+00  -1.17717475994513E+00   0.00000000000000E+00   1.25724257344178E-15
     -2.13755276442023E-15  -1.18257823953573E-15  -2.61299360951483E-15  -7.46643339061282E-17  -2.09045257043959E-15
     -1.18257824323036E-15   1.51920465508412E-12   1.18297109968979E-15   2.23004007868810E-16  -3.92856457269388E-19
     -2.65998510685306E-15  -7.46643302115070E-17   2.70000749352159E-16  -3.92860151892049E-19   1.51920465508412E-13
      7.50571903631951E-17
      1.00000000000000E+04
      8.00000000000000E-01   0.00000000000000E+00  -1.67717475994513E+00   0.00000000000000E+00   1.24662878127868E-15
     -2.27183096606396E-15  -1.17935630401884E-15  -2.21185564853340E-15  -6.72724772598909E-17  -2.09698857704498E-15
     -1.17935630917370E-15   1.21536372406729E-12   1.18059728442298E-15   2.05108268710758E-16  -1.24097524731470E-18
     -2.38697950400237E-15  -6.72724721050286E-17   3.80233143556214E-16  -1.24098040217783E-18   0.00000000000000E+00
      6.85134525071813E-17
      1.00000000000000E+04
      8.00000000000000E-01   0.00000000000000E+00  -2.17717475994513E+00  -3.03840931016824E-13   1.23201488502919E-15
     -2.53530538095525E-15  -1.17069110508304E-15  -1.75602696047180E-15  -6.13237799462156E-17  -2.10405456021112E-15
     -1.17069111270554E-15   7.59602327542059E-13   1.17380046474439E-15   1.89854417541001E-16  -3.10935203611000E-18
     -2.18778038054182E-15  -6.13237723237298E-17   6.21612284162406E-16  -3.10935965859711E-18   3.03840931016824E-13
      6.44331319822293E-17
      1.00000000000000E+04
      8.00000000000000E-01   0.00000000000000E+00  -2.67717475994513E+00  -3.03840931016824E-13   1.20775478359453E-15
     -2.86876822463951E-15  -1.15223249283716E-15  -1.32881004586211E-15  -5.55222907575064E-17  -2.04700748119218E-15
     -1.15223250384686E-15   3.19032977567665E-12   1.15859142652624E-15   1.68524168163040E-16  -6.35892267752747E-18
     -2.15005072997407E-15  -5.55222797478236E-17   9.89768780065672E-16  -6.35893368721159E-18  -4.55761396525235E-13
      6.18812134345753E-17
      1.00000000000000E+04
      8.00000000000000E-01   0.00000000000000E+00  -3.17717475994513E+00  -6.07681862033647E-13   1.17232449297234E-15
     -3.27012907885229E-15  -1.12283796425691E-15  -1.12161791305697E-15  -4.94865287155548E-17  -1.89746445779479E-15
     -1.12283797934490E-15   3.64609117220188E-12   1.13355085609300E-15   1.39358952645326E-16  -1.07128767445889E-17
     -2.49442830496863E-15  -4.94865136275731E-17   1.51216878131600E-15  -1.07128918325716E-17   4.55761396525235E-13
      6.01994054599358E-17
      1.00000000000000E+04
      8.00000000000000E-01   0.00000000000000E+00  -3.67717475994513E+00  -1.51920465508412E-13   1.13397056299429E-15
     -3.45722008163898E-15  -1.08990708292935E-15  -8.56926026077826E-16  -4.40634800649931E-17  -1.77480433694463E-15
     -1.08990709916927E-15   6.07681862033647E-13   1.10494924444264E-15   1.16814519254645E-16  -1.50421452708859E-17
     -2.53922821745314E-15  -4.40634638250803E-17   1.79910230410328E-15  -1.50421615107990E-17   3.03840931016824E-13
      5.91056253363511E-17
      1.00000000000000E+04
      8.00000000000000E-01   0.00000000000000E+00  -4.17717475994513E+00  -7.59602327542059E-13   1.10213318316659E-15
     -3.46716494366997E-15  -1.06218129121777E-15  -6.57780537129039E-16  -3.99518919489025E-17  -1.77686954730483E-15
     -1.06218130583831E-15  -7.59602327542059E-13   1.08063433587434E-15   1.09117983137765E-16  -1.84530300329068E-17
     -2.34763308883515E-15  -3.99518773283623E-17   1.79896926342566E-15  -1.84530446534474E-17   1.51920465508412E-13
      5.84049219817273E-17
      1.00000000000000E+04
      8.00000000000000E-01   0.00000000000000E+00  -4.67717475994513E+00  -7.59602327542059E-13   1.07823184248223E-15
     -3.19247338164657E-15  -1.04124570948667E-15  -4.99765341301319E-16  -3.69861329957555E-17  -1.75333734473001E-15
     -1.04124572081618E-15   6.07681862033647E-13   1.06219628532764E-15   1.01184682602300E-16  -2.09505645086605E-17
     -1.93892340429869E-15  -3.69861216662423E-17   1.54033683037018E-15  -2.09505758381739E-17   0.00000000000000E+00
      5.79366975045638E-17
      1.00000000000000E+04
      8.00000000000000E-01   0.00000000000000E+00  -5.17717475994513E+00  -6.07681862033647E-13   1.05976711289527E-15
     -2.58206244826138E-15  -1.02503430079640E-15  -3.65616633576207E-16  -3.47328120989837E-17  -1.52263372217578E-15
     -1.02503430846322E-15   3.03840931016824E-13   1.04789571846390E-15   7.74356690488146E-17  -2.28614099978881E-17
     -1.42449679065593E-15  -3.47328044321685E-17   1.13632104421506E-15  -2.28614176647035E-17  -1.51920465508412E-13
      5.75942220975804E-17
      1.00000000000000E+04
      8.00000000000000E-01   0.00000000000000E+00  -5.67717475994513E+00  -1.21536372406729E-12   1.04456292572763E-15
     -1.93430924168355E-15  -1.01167205307506E-15  -2.62383128224215E-16  -3.28908726526470E-17  -1.21506503431406E-15
     -1.01167205795550E-15   1.36728418957571E-12   1.03610220461899E-15   4.96725599804957E-17  -2.44301466608076E-17
     -9.81804955364213E-16  -3.28908677722047E-17   7.69098923731144E-16  -2.44301515412501E-17   3.03840931016824E-13
      5.73210193130762E-17
      1.00000000000000E+04
      8.00000000000000E-01   0.00000000000000E+00  -6.17717475994513E+00  -6.07681862033647E-13   1.03135727169963E-15
     -1.48481261453569E-15  -1.00006038027185E-15  -1.96436007181524E-16  -3.12968914278767E-17  -9.87626613797844E-16
     -1.00006038351277E-15   1.06344325855888E-12   1.02585262177248E-15   3.03298969618654E-17  -2.57922382577385E-17
     -6.93144206013391E-16  -3.12968881869646E-17   5.27029865477390E-16  -2.57922414986508E-17   0.00000000000000E+00
      5.70891296848922E-17
      1.00000000000000E+04
      8.00000000000000E-01   0.00000000000000E+00  -6.67717475994513E+00  -3.03840931016824E-13   1.01945898001539E-15
     -1.20633301771381E-15  -9.89595068591169E-16  -1.55818312094410E-16  -2.98639114243423E-17  -8.43218954629849E-16
     -9.89595070918415E-16   1.82304558610094E-12   1.01661540954462E-15   1.85003352674969E-17  -2.70203386232589E-17
     -5.19233335550545E-16  -2.98639090970962E-17   3.81908374882144E-16  -2.70203409505051E-17   1.51920465508412E-13
      5.68842500477416E-17
      1.00000000000000E+04
      8.00000000000000E-01   0.00000000000000E+00  -7.17717475994513E+00  -3.03840931016824E-13   1.00847151833521E-15
     -1.03104612524684E-15  -9.79928443704483E-16  -1.28747759749971E-16  -2.85430746308661E-17  -7.48652863815193E-16
     -9.79928445491042E-16   1.51920465508412E-12   1.00808392246218E-15   1.08221673338681E-17  -2.81554769684577E-17
     -4.10810163766952E-16  -2.85430728443082E-17   2.92879110918374E-16  -2.81554787550155E-17  -6.07681862033647E-13
      5.66985515996430E-17
      1.00000000000000E+04
      8.00000000000000E-01   0.00000000000000E+00  -7.67717475994513E+00  -6.07681862033647E-13   9.98150094797997E-16
     -9.12353388777027E-16  -9.70845113181594E-16  -1.08717253966644E-16  -2.73049816164746E-17  -6.81428448894274E-16
     -9.70845114620757E-16   1.51920465508412E-12   1.00006758705208E-15   5.25812473919009E-18  -2.92224724281625E-17
     -3.38994024495866E-16  -2.73049801773129E-17   2.35534576138671E-16  -2.92224738673242E-17  -1.51920465508412E-13
      5.65274540439541E-17
      1.00000000000000E+04
      8.00000000000000E-01   0.00000000000000E+00  -8.17717475994513E+00  -7.59602327542059E-13   9.88332802175955E-16
     -8.27369339549064E-16  -9.62201905301686E-16  -9.28623192176008E-17  -2.61308968743449E-17  -6.31205954914803E-16
     -9.62201906501677E-16  -1.51920465508412E-13   9.92439151545968E-16   8.22436689482567E-19  -3.02372450416950E-17
     -2.89305077294102E-16  -2.61308956743575E-17   1.97277108249484E-16  -3.02372462416825E-17  -1.51920465508412E-13
      5.63681419157396E-17
      1.00000000000000E+04
      8.00000000000000E-01   0.00000000000000E+00  -8.67717475994513E+00  -9.11522793050471E-13   9.78906343423702E-16
     -7.64044002135406E-16  -9.53897971847108E-16  -7.99923603229083E-17  -2.50083715766983E-17  -5.90326213805761E-16
     -9.53897972872627E-16   1.51920465508412E-12   9.85108428467425E-16  -2.97584751114164E-18  -3.12104555917356E-17
     -2.53853838715249E-16  -2.50083705511792E-17   1.70867281990255E-16  -3.12104566172546E-17   0.00000000000000E+00
      5.62188271689642E-17
      1.00000000000000E+04
      8.00000000000000E-01   0.00000000000000E+00  -9.17717475994513E+00  -7.59602327542059E-13   9.69787626526284E-16
     -7.14448501428155E-16  -9.45858769539188E-16  -6.93592147081966E-17  -2.39288569872507E-17  -5.56935416909898E-16
     -9.45858770429435E-16   1.06344325855888E-12   9.78008256405575E-16  -6.40079157423555E-18  -3.21494859729132E-17
     -2.26956200713372E-16  -2.39288560970044E-17   1.51208889930155E-16  -3.21494868631594E-17  -3.03840931016824E-13
      5.60783429592326E-17
      1.00000000000000E+04
      8.00000000000000E-01   0.00000000000000E+00  -9.67717475994513E+00  -1.21536372406729E-12   9.60913080308710E-16
     -6.73145957369283E-16  -9.38026784511328E-16  -6.06207234254357E-17  -2.28862957974728E-17  -5.28380879363230E-16
     -9.38026785291559E-16   1.67112512059253E-12   9.71086392005624E-16  -9.66754732411343E-18  -3.30596067110840E-17
     -2.05641937486549E-16  -2.28862950172418E-17   1.35359960990372E-16  -3.30596074913149E-17   0.00000000000000E+00
      5.59459025079208E-17
      1.00000000000000E+04
      8.00000000000000E-01   0.00000000000000E+00  -1.01771747599451E+01  -1.21536372406729E-12   9.52232200385867E-16
     -6.39403123241066E-16  -9.30355929852382E-16  -5.36435007523626E-17  -2.18762705335769E-17  -5.04162125050006E-16
     -9.30355930539298E-16  -9.11522793050471E-13   9.64300614720858E-16  -1.31903453770149E-17  -3.39446841791906E-17
     -1.88294217295525E-16  -2.18762698466639E-17   1.21464241129333E-16  -3.39446848661037E-17   4.55761396525235E-13
      5.58209547120497E-17
      1.00000000000000E+04
      8.00000000000000E-01   0.00000000000000E+00  -1.06771747599451E+01  -3.03840931016824E-13   9.43703752902646E-16
     -6.10093280544148E-16  -9.22808241516698E-16  -4.83697554262829E-17  -2.08955113860547E-17  -4.86255211850498E-16
     -9.22808242117754E-16  -1.36728418957571E-12   9.57615832933635E-16  -1.81977239728134E-17  -3.48075908138809E-17
     -1.72692925076972E-16  -2.08955107849965E-17   1.06104675112688E-16  -3.48075914149390E-17  -3.03840931016824E-13
      5.57031021996774E-17
      1.00000000000000E+04
      8.00000000000000E-01   0.00000000000000E+00  -1.11771747599451E+01   0.00000000000000E+00   9.35293840643758E-16
     -5.86085997583945E-16  -9.15352193773259E-16  -4.42890923166796E-17  -1.99416468704756E-17  -4.81212947639791E-16
     -9.15352194270720E-16  -1.06344325855888E-12   9.51002606639334E-16  -2.87641675332659E-17  -3.56504123646265E-17
     -1.49164676742196E-16  -1.99416463730164E-17   7.61139124591138E-17  -3.56504128620857E-17   0.00000000000000E+00
      5.55920592342737E-17
      1.00000000000000E+04
      8.00000000000000E-01   0.00000000000000E+00  -1.16771747599451E+01  -6.07681862033647E-13   9.26975396024362E-16
     -5.63678286985195E-16  -9.07962276883423E-16  -4.09480726376204E-17  -1.90131191410530E-17  -5.12824656452358E-16
     -9.07962277197286E-16  -3.03840931016824E-13   9.44436791499675E-16  -5.83385904767091E-17  -3.64745142999266E-17
     -9.21715282794830E-17  -1.90131188271890E-17  -7.11096508602317E-18  -3.64745146137907E-17   4.55761396525235E-13
      5.54876334412513E-17
      1.00000000000000E+04
      8.00000000000000E-01   0.00000000000000E+00  -1.21771747599451E+01  -9.11522793050471E-13   9.18728877288765E-16
     -5.43378149401948E-16  -9.00619664648334E-16  -3.81130221334964E-17  -1.81092126405981E-17  -6.53653547940316E-16
     -9.00619664525220E-16   1.82304558610094E-12   9.37900172586904E-16  -1.50375639235001E-16  -3.72805080595052E-17
      7.19828243314442E-17  -1.81092127637139E-17  -2.60488784635827E-16  -3.72805079363895E-17  -3.03840931016824E-13
      5.53897206995897E-17
      1.00000000000000E+04
      8.00000000000000E-01   0.00000000000000E+00  -1.26771747599451E+01  -3.03840931016824E-13   9.10544058543086E-16
     -5.25004745298112E-16  -8.93313896621308E-16  -3.56217630710272E-17  -1.72301619219453E-17  -1.12610777582509E-15
     -8.93313895302121E-16   1.51920465508412E-13   9.31382039944275E-16  -4.44094548143446E-16  -3.80681446402016E-17
      5.65419751382019E-16  -1.72301632411307E-17  -1.04513446925552E-15  -3.80681433210161E-17  -3.03840931016824E-13
      5.52983065618838E-17
      1.00000000000000E+04
      8.00000000000000E-01   0.00000000000000E+00  -1.31771747599451E+01  -7.59602327542059E-13   9.02422788415950E-16
     -5.08117847461541E-16  -8.86045481123801E-16  -3.32983167120614E-17  -1.63773072922822E-17  -2.58623485089396E-15
     -8.86045476400342E-16   7.59602327542059E-13   9.24881638369674E-16  -1.37493175019532E-15  -3.88361619669277E-17
      2.04501646303329E-15  -1.63773120157398E-17  -3.45325428957600E-15  -3.88361572434701E-17  -1.51920465508412E-13
      5.52134692587032E-17
      1.00000000000000E+04
      8.00000000000000E-01   0.00000000000000E+00  -1.36771747599451E+01  -6.07681862033647E-13   8.94382396010142E-16
     -4.91856027420450E-16  -8.78829142815261E-16  -3.09555796816279E-17  -1.55532531949403E-17  -6.92390511006051E-15
     -8.78829128434102E-16   1.51920465508412E-12   9.18411254326155E-16  -4.26796910569223E-15  -3.95821258899221E-17
      6.40068723588491E-15  -1.55532675761006E-17  -1.06995977757733E-14  -3.95821115087620E-17   1.51920465508412E-13
      5.51353790843904E-17
      1.00000000000000E+04
      8.00000000000000E-01   0.00000000000000E+00  -1.41771747599451E+01  -4.55761396525235E-13   8.86459020808661E-16
     -4.78298366189683E-16  -8.71697063902471E-16  -2.84017368250436E-17  -1.47619569063390E-17  -1.94294318657552E-14
     -8.71697022610248E-16   1.51920465508412E-13   9.11999352719651E-16  -1.30452940350698E-14  -4.03023301077820E-17
      1.89230146082472E-14  -1.47619981985650E-17  -3.19967059476807E-14  -4.03022888155559E-17  -4.55761396525235E-13
      5.50642870132676E-17
      1.00000000000000E+04
      8.00000000000000E-01   0.00000000000000E+00  -1.46771747599451E+01  -6.07681862033647E-13   8.78709602649979E-16
     -4.65688872145748E-16  -8.64700956851741E-16  -2.53925035721846E-17  -1.40086457982931E-17  -5.44924811305542E-14
     -8.64700842307774E-16   1.82304558610094E-12   9.05692689346742E-16  -3.89725718216869E-14  -4.09918470362280E-17
      5.40015544411889E-14  -1.40087603422593E-17  -9.29995091519033E-14  -4.09917324922618E-17  -1.51920465508412E-13
      5.50004928351167E-17
      1.00000000000000E+04
      8.00000000000000E-01   0.00000000000000E+00  -1.51771747599451E+01  -3.03840931016824E-13   8.71210844975497E-16
     -4.54397508308931E-16  -8.57911390690267E-16  -2.15226391743122E-17  -1.32994542854160E-17  -1.50085399759382E-13
     -8.57911081861547E-16   6.07681862033647E-13   8.99555907750490E-16  -1.13380030605093E-13  -4.16448258859696E-17
      1.49608791062969E-13  -1.32997631141354E-17  -2.63010345767853E-13  -4.16445170572501E-17  -1.51920465508412E-13
      5.49442801715234E-17
      1.00000000000000E+04
      8.00000000000000E-01   0.00000000000000E+00  -1.56771747599451E+01  -6.07681862033647E-13   8.64053626634096E-16
     -4.48340376258515E-16  -8.51412907829080E-16  -1.59990051062792E-17  -1.26407188051959E-17  -4.03304539242955E-13
     -8.51412097670914E-16   3.19032977567665E-12   8.93667179963217E-16  -3.20424113434013E-13  -4.22550822903571E-17
      4.02840054389569E-13  -1.26415289633627E-17  -7.23280148170642E-13  -4.22542721321902E-17   3.03840931016824E-13
      5.48958010960711E-17
      1.00000000000000E+04
      8.00000000000000E-01   0.00000000000000E+00  -1.61771747599451E+01  -7.59602327542059E-13   8.57332527343667E-16
     -4.48933523830264E-16  -8.45294540655773E-16  -7.12682024792584E-18  -1.20379866880857E-17  -1.05435094472351E-12
     -8.45292473559120E-16   5.62105722381124E-12   8.88109366455139E-16  -8.77876438604043E-13  -4.28168928930199E-17
      1.05389476424130E-12  -1.20400537847388E-17  -1.93177833104739E-12  -4.28148257963668E-17   7.59602327542059E-13
      5.48548795810166E-17
      1.00000000000000E+04
      8.00000000000000E-01   0.00000000000000E+00  -1.66771747599451E+01  -6.07681862033647E-13   8.51132237071308E-16
     -4.64670302548741E-16  -8.39637291405084E-16   8.83687459553053E-18  -1.14949456663693E-17  -2.67697026691071E-12
     -8.39632166527812E-16   7.44410280991218E-12   8.82957885918074E-16  -2.32707390071129E-12  -4.33257193871935E-17
      2.67651446876139E-12  -1.15000705436425E-17  -5.00357953246544E-12  -4.33205945099203E-17   1.97496605160935E-12
      5.48206650535267E-17
      1.00000000000000E+04
      8.00000000000000E-01   0.00000000000000E+00  -1.71771747599451E+01  -9.11522793050471E-13   8.45514597011035E-16
     -5.12162301549942E-16  -8.34502028865774E-16   4.00795531811511E-17  -1.10125681453573E-17  -6.59066657768891E-12
     -8.34489699100443E-16   1.26093986371982E-11   8.78268112094910E-16  -5.95646377262773E-12  -4.37784129919086E-17
      6.59019460563636E-12  -1.10248979106893E-17  -1.25466183181861E-11  -4.37660832265767E-17   6.38065955135330E-12
      5.47909811371777E-17
      1.00000000000000E+04
      8.00000000000000E-01   0.00000000000000E+00  -1.76771747599451E+01  -4.55761396525235E-13   8.40510405805554E-16
     -6.25250579728258E-16  -8.29921710109691E-16   1.03469102844987E-16  -1.05886956959384E-17  -1.57055768346039E-11
     -8.29892977408345E-16   3.34225024118506E-11   8.74065344510170E-16  -1.46905524863855E-11  -4.41723670998271E-17
      1.57050549689753E-11  -1.06174283972858E-17  -3.03955039986060E-11  -4.41436343984796E-17   1.51920465508412E-11
      5.47610627952609E-17
      1.00000000000000E+04
      8.00000000000000E-01   0.00000000000000E+00  -1.81771747599451E+01   3.03840931016824E-13   8.36118351297595E-16
     -8.65601054052099E-16  -8.25900276153833E-16   2.30047011203068E-16  -1.02180751439077E-17  -3.61416798012911E-11
     -8.25835582726467E-16   7.47448690301386E-11   8.70338687420538E-16  -3.48257031003727E-11  -4.45031046914975E-17
      3.61410435685188E-11  -1.02827685712717E-17  -7.09665166062063E-11  -4.44384112641334E-17   3.46378661359179E-11
      5.47211798343717E-17
      1.00000000000000E+04
      8.00000000000000E-01   0.00000000000000E+00  -1.86771747599451E+01  -3.03840931016824E-13   8.32310555490166E-16
     -1.32677166045215E-15  -8.22417921349217E-16   4.65703703851110E-16  -9.89263414107133E-18  -8.00697281516290E-11
     -8.22277663163337E-16   1.61339534369933E-10   8.67037572730752E-16  -7.91204049823096E-11  -4.47599095645305E-17
      8.00688675852053E-11  -1.00328923269519E-17  -1.59188806843926E-10  -4.46196513786498E-17   7.89986420643741E-11
      5.46525437052133E-17
      1.00000000000000E+04
      8.00000000000000E-01   0.00000000000000E+00  -1.91771747599451E+01  -7.59602327542059E-13   8.29042025654455E-16
     -2.08105473828807E-15  -8.19440304496646E-16   8.48306948834492E-16  -9.60172115798146E-18  -1.70095947388134E-10
     -8.19148837641589E-16   3.41669126928418E-10   8.64068400193781E-16  -1.71619474322678E-10  -4.49195625502224E-17
      1.70094714848997E-10  -9.89318801303873E-18  -3.41713340849420E-10  -4.46280956951650E-17   1.71973966955522E-10
      5.45212837078981E-17
      1.00000000000000E+04
      8.00000000000000E-01   0.00000000000000E+00  -1.96771747599451E+01   3.03840931016824E-13   8.26260703425033E-16
     -3.06574437157927E-15  -8.16928468328582E-16   1.34276253125483E-15  -9.33223509663134E-18  -3.44700353675257E-10
     -8.16351411303916E-16   6.98226459476661E-10   8.61291130256224E-16  -3.53691237812191E-10  -4.49397189506949E-17
      3.44698630986217E-10  -9.90929212129767E-18  -6.98388526046141E-10  -4.43626619260282E-17   3.53518923238074E-10
      5.42719540471592E-17
      1.00000000000000E+04
      8.00000000000000E-01   0.00000000000000E+00  -2.01771747599451E+01  -7.59602327542059E-13   8.23915378165893E-16
     -3.97887914120060E-15  -8.14846353546731E-16   1.79120838351853E-15  -9.06902461926089E-18  -6.62165487054447E-10
     -8.13766044298262E-16   1.35391518861097E-09   8.58522811530094E-16  -6.88421705394944E-10  -4.47567672298206E-17
      6.62163299577414E-10  -1.01493338677283E-17  -1.35058321376480E-09  -4.36764579813524E-17   6.88351629218614E-10
      5.38257918481442E-17
      1.00000000000000E+04
      8.00000000000000E-01   0.00000000000000E+00  -2.06771747599451E+01   1.51920465508412E-13   8.21959655769139E-16
     -4.48079147000024E-15  -8.13163238449196E-16   2.01556384489255E-15  -8.79641732009366E-18  -1.19743709856439E-09
     -8.11266775528696E-16   2.45305975656433E-09   8.55563713279569E-16  -1.25710221612580E-09  -4.42969377485256E-17
      1.19743463369062E-09  -1.06928802405931E-17  -2.45453483425171E-09  -4.24004748280252E-17   1.25714185208211E-09
      5.30933550684693E-17
      1.00000000000000E+04
      8.00000000000000E-01   0.00000000000000E+00  -2.11771747599451E+01  -1.51920465508412E-13   8.20351363157692E-16
     -4.51911462119815E-15  -8.11849782428864E-16   1.99129393937486E-15  -8.50158072887422E-18  -2.02579045210138E-09
     -8.08751341863338E-16   4.16854565308531E-09   8.52258604016421E-16  -2.14086487223456E-09  -4.35072621497857E-17
      2.02578792388785E-09  -1.16000212943977E-17  -4.16665080480242E-09  -4.04088215842606E-17   2.14101512041005E-09
      5.20088428783321E-17
      1.00000000000000E+04
      8.00000000000000E-01   0.00000000000000E+00  -2.16771747599451E+01  -1.06344325855888E-12   8.19048793558772E-16
     -4.27141890281535E-15  -8.10869908465500E-16   1.81881027866710E-15  -8.17888509344760E-18  -3.19477502060069E-09
     -8.06178328046622E-16   6.58863866863431E-09   8.48574447652402E-16  -3.38913611183123E-09  -4.23961196028831E-17
      3.19477256765317E-09  -1.28704655123249E-17  -6.58390686069019E-09  -3.77045391840034E-17   3.38858598316513E-09
      5.05750046965543E-17
      1.00000000000000E+04
      8.00000000000000E-01   0.00000000000000E+00  -2.21771747599451E+01   0.00000000000000E+00   8.18007411408037E-16
     -3.89023998638566E-15  -8.10175014335336E-16   1.58794439711390E-15  -7.83239707281082E-18  -4.69998890697991E-09
     -8.03583884664533E-16   9.69237377897116E-09   8.44635533390997E-16  -4.99261808165217E-09  -4.10516487236411E-17
      4.69998660412236E-09  -1.44235267436151E-17  -9.69260309783537E-09  -3.44605190528331E-17   4.99271417846845E-09
      4.88840457967859E-17
      1.00000000000000E+04
      8.00000000000000E-01   0.00000000000000E+00  -2.26771747599451E+01   0.00000000000000E+00   8.17180332144207E-16
     -3.47634182712310E-15  -8.09706306698263E-16   1.35282688076208E-15  -7.47402544610334E-18  -6.48377443039427E-09
     -8.01057870051360E-16   1.33641395098440E-08   8.40672479298070E-16  -6.88249576086071E-09  -3.96146092437782E-17
      6.48377230625376E-09  -1.61224620930039E-17  -1.33662667142893E-08  -3.09661725968728E-17   6.88245284892758E-09
      4.70886346896458E-17
      1.00000000000000E+04
      8.00000000000000E-01   0.00000000000000E+00  -2.31771747599451E+01   3.03840931016824E-13   8.16522296193699E-16
     -3.11141639030032E-15  -8.09403926636567E-16   1.14949601009677E-15  -7.11836955726624E-18  -8.45816365334335E-09
     -7.98695658357249E-16   1.74144910407637E-08   8.36919711190770E-16  -8.95715498554653E-09  -3.82240528314857E-17
      8.45816169167341E-09  -1.78266378365737E-17  -1.74153155276839E-08  -2.75157845521797E-17   8.95768640777248E-09
      4.53424223879998E-17
      1.00000000000000E+04
      8.00000000000000E-01   0.00000000000000E+00  -2.36771747599451E+01  -6.07681862033647E-13   8.15993929708036E-16
     -2.83304552313858E-15  -8.09216081992536E-16   9.92223322522729E-16  -6.77784771568547E-18  -1.05341485428249E-08
     -7.96561283288014E-16   2.16518566647244E-08   8.33537712222909E-16  -1.11156872516163E-08  -3.69764289322560E-17
      1.05341467023650E-08  -1.94326464201990E-17  -2.16498329617266E-08  -2.43216302277460E-17   1.11152608589229E-08
      4.37542766471423E-17
      1.00000000000000E+04
      8.00000000000000E-01   0.00000000000000E+00  -2.41771747599451E+01   1.06344325855888E-12   8.15563827524815E-16
     -2.63522414122063E-15  -8.09103392924685E-16   8.75499141823117E-16  -6.46043460027705E-18  -1.26405192367634E-08
     -7.94678201743051E-16   2.59191506203901E-08   8.30594687227553E-16  -1.32790241525785E-08  -3.59164854823304E-17
      1.26405174775440E-08  -2.08856257819103E-17  -2.59195407546374E-08  -2.14912943006880E-17   1.32787602082282E-08
      4.23769200825465E-17
      1.00000000000000E+04
      8.00000000000000E-01   0.00000000000000E+00  -2.46771747599451E+01   1.51920465508412E-13   8.15208348920139E-16
     -2.48904360004100E-15  -8.09038566182892E-16   7.86069506071892E-16  -6.16978273743015E-18  -1.47290514659723E-08
     -7.93038909274822E-16   3.01244610261285E-08   8.28088540242641E-16  -1.53952564818003E-08  -3.50496309652972E-17
      1.47290497632681E-08  -2.21694396455012E-17  -3.01243054590207E-08  -1.90499740572131E-17   1.53950122927604E-08
      4.12194137024058E-17
      1.00000000000000E+04
      8.00000000000000E-01   0.00000000000000E+00  -2.51771747599451E+01  -1.51920465508412E-13   8.14910223527421E-16
     -2.36628285381212E-15  -8.09003803504094E-16   7.12239199070688E-16  -5.90642002347565E-18  -1.67713949518606E-08
     -7.91619075873387E-16   3.42099061845807E-08   8.25978257148939E-16  -1.74355111727862E-08  -3.43591812732523E-17
      1.67713932980733E-08  -2.32911476541728E-17  -3.42069037586194E-08  -1.69744536425420E-17   1.74351522240729E-08
      4.02656012964160E-17
      1.00000000000000E+04
      8.00000000000000E-01   0.00000000000000E+00  -2.56771747599451E+01  -1.51920465508412E-13   8.14656939037188E-16
     -2.24969293364682E-15  -8.08987914055432E-16   6.46844867955404E-16  -5.66902498199620E-18  -1.87533904411257E-08
     -7.90388474229581E-16   3.81387213430937E-08   8.24208102035232E-16  -1.93870609347127E-08  -3.38196278034432E-17
      1.87533888390467E-08  -2.42684648078430E-17  -3.81404491269226E-08  -1.52201879775877E-17   1.93864186830629E-08
      3.94886527847662E-17
      1.00000000000000E+04
      8.00000000000000E-01   0.00000000000000E+00  -2.61771747599451E+01  -1.51920465508412E-13   8.14439373467969E-16
     -2.13173376916508E-15  -8.08983992703955E-16   5.86594239293508E-16  -5.45538076422845E-18  -2.06698760042022E-08
     -7.89317280210695E-16   4.19180467635465E-08   8.22721645975635E-16  -2.12471719717497E-08  -3.34043657617805E-17
      2.06698744596784E-08  -2.51220932574840E-17  -4.19170458448440E-08  -1.37376532685127E-17   2.12469886241444E-08
      3.88597465268316E-17
      1.00000000000000E+04