DF-ISE text

Info {
  version   = 1.0
  type      = xyplot
  datasets  = [
    "frequency"
    "v(Ntop)" "v(Ptop)" "v(Pbot)" "a(Ntop,Ntop)" "c(Ntop,Ntop)"
    "a(Ntop,Ptop)" "c(Ntop,Ptop)" "a(Ntop,Pbot)" "c(Ntop,Pbot)" "a(Ptop,Ntop)"
    "c(Ptop,Ntop)" "a(Ptop,Ptop)" "c(Ptop,Ptop)" "a(Ptop,Pbot)" "c(Ptop,Pbot)"
    "a(Pbot,Ntop)" "c(Pbot,Ntop)" "a(Pbot,Ptop)" "c(Pbot,Ptop)" "a(Pbot,Pbot)"
    "c(Pbot,Pbot)" ]
  functions = [
    Frequency
    Voltage Voltage Voltage Admittance Capacitance
    Admittance Capacitance Admittance Capacitance Admittance
    Capacitance Admittance Capacitance Admittance Capacitance
    Admittance Capacitance Admittance Capacitance Admittance
    Capacitance ]
}

Data {
      1.00000000000000E+04
      8.00000000000000E-01   0.00000000000000E+00  -5.00000000000000E-02  -3.03840931016824E-13   1.46249757683764E-15
     -2.51685306188794E-15  -1.35731210557329E-15  -4.18150317461562E-15  -1.05185471264285E-16  -2.53064786293353E-15
     -1.35731210674375E-15   4.86145489626918E-12   1.35732491805877E-15   2.45416131532516E-16  -1.28113121857059E-20
     -4.16780379115281E-15  -1.05185470093834E-16   2.31723602215581E-16  -1.28124826454331E-20   0.00000000000000E+00
      1.05198282575981E-16
      1.00000000000000E+04
      8.00000000000000E-01   0.00000000000000E+00  -1.45555555555556E-01  -3.03840931016824E-13   1.45835417822350E-15
     -2.50796004643010E-15  -1.35729840408253E-15  -3.93903773569290E-15  -1.01055774140914E-16  -2.52013914408374E-15
     -1.35729840548697E-15   3.03840931016824E-12   1.35731629394264E-15   2.36153323099393E-16  -1.78884543139453E-20
     -3.92654984742591E-15  -1.01055772736506E-16   2.23676688916699E-16  -1.78898587361349E-20   0.00000000000000E+00
      1.01073662594875E-16
      1.00000000000000E+04
      8.00000000000000E-01   0.00000000000000E+00  -3.28172839506173E-01  -4.55761396525235E-13   1.45162541808822E-15
     -2.49422323181346E-15  -1.35725671157857E-15  -3.56110572118445E-15  -9.43687065097580E-17  -2.50346295856314E-15
     -1.35725671337064E-15   9.11522793050471E-13   1.35728954424002E-15   2.21287981767432E-16  -3.28308681109802E-20
     -3.55175421251605E-15  -9.43687047177009E-17   2.11940255009654E-16  -3.28326601730773E-20   3.03840931016824E-13
      9.44015373776817E-17
      1.00000000000000E+04
      8.00000000000000E-01   0.00000000000000E+00  -6.77174759945130E-01  -3.03840931016824E-13   1.44168332931527E-15
     -2.48305596231135E-15  -1.35707119222087E-15  -3.05703214533418E-15  -8.46121370944316E-17  -2.48101092534844E-15
     -1.35707119461216E-15   2.43072744813459E-12   1.35716656811756E-15   2.00123562613404E-16  -9.53735033323441E-20
     -3.05856429124343E-15  -8.46121347031579E-17   2.01657334031116E-16  -9.53758946081222E-20   4.55761396525235E-13
      8.47075105972110E-17
      1.00000000000000E+04
      8.00000000000000E-01   0.00000000000000E+00  -1.17717475994513E+00   0.00000000000000E+00   1.43087673431559E-15
     -2.51193584494076E-15  -1.35617974736503E-15  -2.56176847476926E-15  -7.46969869506348E-17  -2.46872292877418E-15
     -1.35617975058590E-15   7.59602327542059E-13   1.35654822198759E-15   1.79926737316948E-16  -3.68471400582189E-19
     -2.60574165156289E-15  -7.46969837297665E-17   2.23902766679641E-16  -3.68474621452009E-19  -1.51920465508412E-13
      7.50654583507576E-17
      1.00000000000000E+04
      8.00000000000000E-01   0.00000000000000E+00  -1.67717475994513E+00  -3.03840931016824E-13   1.42058178251971E-15
     -2.64135188065291E-15  -1.35320819065725E-15  -2.16410017186103E-15  -6.73735918625299E-17  -2.47803547960310E-15
     -1.35320819522958E-15   3.03840931016824E-13   1.35436952134693E-15   1.66086243376754E-16  -1.16132611558330E-18
     -2.32780270151506E-15  -6.73735872901975E-17   3.29784928696310E-16  -1.16133068791525E-18  -6.07681862033647E-13
      6.85349179784696E-17
      1.00000000000000E+04
      8.00000000000000E-01   0.00000000000000E+00  -2.17717475994513E+00   0.00000000000000E+00   1.40683899753907E-15
     -2.89339427269251E-15  -1.34526240988802E-15  -1.71084166578763E-15  -6.15765876511149E-17  -2.49195107698171E-15
     -1.34526241670486E-15   1.51920465508412E-12   1.34816180460456E-15   1.54514908671257E-16  -2.89938789801162E-18
     -2.11256981854773E-15  -6.15765808342803E-17   5.56249181463587E-16  -2.89939471484740E-18  -3.03840931016824E-13
      6.44759755490452E-17
      1.00000000000000E+04
      8.00000000000000E-01   0.00000000000000E+00  -2.67717475994513E+00  -3.03840931016824E-13   1.38446289022711E-15
     -3.21759862914726E-15  -1.32841935882248E-15  -1.28614878445215E-15  -5.60435314047539E-17  -2.45921157950464E-15
     -1.32841936866377E-15   1.36728418957571E-12   1.33432847456067E-15   1.38208725866198E-16  -5.90910589481759E-18
     -2.04531983382601E-15  -5.60435215634621E-17   8.97373619753486E-16  -5.90911573610957E-18   0.00000000000000E+00
      6.19526372991775E-17
      1.00000000000000E+04
      8.00000000000000E-01   0.00000000000000E+00  -3.17717475994513E+00   0.00000000000000E+00   1.35187281061883E-15
     -3.62170511630930E-15  -1.30152758776399E-15  -1.08632995137229E-15  -5.03452228548653E-17  -2.35201419414464E-15
     -1.30152760128531E-15   1.51920465508412E-12   1.31147996213454E-15   1.15485843047358E-16  -9.95236084637608E-18
     -2.35642923716711E-15  -5.03452093335512E-17   1.38558107614356E-15  -9.95237436769085E-18   0.00000000000000E+00
      6.02975837009229E-17
      1.00000000000000E+04
      8.00000000000000E-01   0.00000000000000E+00  -3.67717475994513E+00  -3.03840931016824E-13   1.31621256283651E-15
     -3.83148277846889E-15  -1.27101899918582E-15  -8.29114576804352E-16  -4.51935636507227E-17  -2.26589714925671E-15
     -1.27101901383876E-15  -6.07681862033647E-13   1.28504404084780E-15   9.78954803411121E-17  -1.40250270065801E-17
     -2.39529619306736E-15  -4.51935489977907E-17   1.66407974294125E-15  -1.40250416595129E-17  -1.51920465508412E-13
      5.92185906569424E-17
      1.00000000000000E+04
      8.00000000000000E-01   0.00000000000000E+00  -4.17717475994513E+00   4.55761396525235E-13   1.28628614162201E-15
     -3.88313170309005E-15  -1.24504139842899E-15  -6.37981567369977E-16  -4.12447431930486E-17  -2.28778847900795E-15
     -1.24504141180213E-15   4.55761396525235E-13   1.26231871003367E-15   9.29903556459737E-17  -1.72772982293638E-17
     -2.23378901936916E-15  -4.12447298199113E-17   1.68880869987369E-15  -1.72773116025013E-17  -3.03840931016824E-13
      5.85220414222310E-17
      1.00000000000000E+04
      8.00000000000000E-01   0.00000000000000E+00  -4.67717475994513E+00  -3.03840931016824E-13   1.26386576953486E-15
     -3.68479291702423E-15  -1.22547468288539E-15  -4.87568855072307E-16  -3.83910866494714E-17  -2.29860137740048E-15
     -1.22547469344436E-15   3.79801163771029E-12   1.24513866746475E-15   8.87575301523103E-17  -1.96639740184083E-17
     -1.87399174390744E-15  -3.83910760904887E-17   1.47517690919397E-15  -1.96639845773913E-17   0.00000000000000E+00
      5.80550606678532E-17
      1.00000000000000E+04
      8.00000000000000E-01   0.00000000000000E+00  -5.17717475994513E+00  -6.07681862033647E-13   1.24678241614061E-15
     -3.16145073779720E-15  -1.21054338481974E-15  -3.60599720348449E-16  -3.62390313209592E-17  -2.11985791300769E-15
     -1.21054339209396E-15   1.21536372406729E-12   1.23201878615341E-15   6.96097505728227E-17  -2.14753940578744E-17
     -1.40269532674332E-15  -3.62390240467331E-17   1.11170887386728E-15  -2.14754013321006E-17   4.55761396525235E-13
      5.77144253781572E-17
      1.00000000000000E+04
      8.00000000000000E-01   0.00000000000000E+00  -5.67717475994513E+00  -1.51920465508412E-13   1.23296777261397E-15
     -2.55426892500297E-15  -1.19846865858926E-15  -2.59671795950477E-16  -3.44991140248013E-17  -1.84030684288206E-15
     -1.19846866322713E-15   1.51920465508412E-13   1.22141366071047E-15   4.40175182622069E-17  -2.29449974811579E-17
     -9.74405120129370E-16  -3.44991093869273E-17   7.58755117266689E-16  -2.29450021190322E-17   0.00000000000000E+00
      5.74441115056433E-17
      1.00000000000000E+04
      8.00000000000000E-01   0.00000000000000E+00  -6.17717475994513E+00  -1.51920465508412E-13   1.22118253172821E-15
     -2.11282187705718E-15  -1.18817247270535E-15  -1.93412998974397E-16  -3.30100590229228E-17  -1.62206378016136E-15
     -1.18817247573917E-15   1.21536372406729E-12   1.21237833351621E-15   2.52473885297903E-17  -2.42058577748296E-17
     -6.84976671417221E-16  -3.30100559891092E-17   5.16806859543346E-16  -2.42058608086434E-17  -6.07681862033647E-13
      5.72159167970626E-17
      1.00000000000000E+04
      8.00000000000000E-01   0.00000000000000E+00  -6.67717475994513E+00  -3.03840931016824E-13   1.21073903972771E-15
     -1.83842709878426E-15  -1.17905394328992E-15  -1.52328737071080E-16  -3.16850964378203E-17  -1.48240735094547E-15
     -1.17905394542323E-15  -2.12688651711777E-12   1.20438413820463E-15   1.37626736057945E-17  -2.53301927793332E-17
     -5.08434378799486E-16  -3.16850943045134E-17   3.69887467383422E-16  -2.53301949126401E-17   3.03840931016824E-13
      5.70152892174960E-17
      1.00000000000000E+04
      8.00000000000000E-01   0.00000000000000E+00  -7.17717475994513E+00   0.00000000000000E+00   1.20124182075978E-15
     -1.66603425986113E-15  -1.17076650608377E-15  -1.25070281195709E-16  -3.04753146760404E-17  -1.39318553651516E-15
     -1.17076650768749E-15  -7.59602327542059E-13   1.19712542381305E-15   6.49651147074938E-18  -2.63589161239062E-17
     -3.98250572859786E-16  -3.04753130723243E-17   2.79690937633515E-16  -2.63589177276223E-17   4.55761396525235E-13
      5.68342308002115E-17
      1.00000000000000E+04
      8.00000000000000E-01   0.00000000000000E+00  -7.67717475994513E+00  -1.51920465508412E-13   1.19244780202886E-15
     -1.55128854561612E-15  -1.16309651363762E-15  -1.05041550336745E-16  -2.93512883912509E-17  -1.33177406862272E-15
     -1.16309651490444E-15   1.51920465508412E-13   1.19041327351196E-15   1.39997564359011E-18  -2.73167586054693E-17
     -3.25278399306233E-16  -2.93512871244473E-17   2.21629130665643E-16  -2.73167598722730E-17  -1.51920465508412E-13
      5.66680469958609E-17
      1.00000000000000E+04
      8.00000000000000E-01   0.00000000000000E+00  -8.17717475994513E+00  -3.03840931016824E-13   1.18419780087340E-15
     -1.47153321977938E-15  -1.15590351249587E-15  -8.92852964376568E-17  -2.82942883775293E-17  -1.28673571205592E-15
     -1.15590351353283E-15   2.88648884465982E-12   1.18412306264637E-15  -2.54553437161204E-18  -2.82195491123681E-17
     -2.74559375467103E-16  -2.82942873405677E-17   1.82750070458550E-16  -2.82195501493297E-17   0.00000000000000E+00
      5.65138374901019E-17
      1.00000000000000E+04
      8.00000000000000E-01   0.00000000000000E+00  -8.67717475994513E+00  -6.07681862033647E-13   1.17638225250790E-15
     -1.41272914523362E-15  -1.14909035670422E-15  -7.66306070591284E-17  -2.72918958036968E-17  -1.25161121752069E-15
     -1.14909035757528E-15   3.03840931016824E-13   1.17816820844681E-15  -5.84473597945383E-18  -2.90778508698202E-17
     -2.38324335403537E-16  -2.72918949326453E-17   1.55850841652696E-16  -2.90778517408716E-17  -6.07681862033647E-13
      5.63697466737313E-17
      1.00000000000000E+04
      8.00000000000000E-01   0.00000000000000E+00  -9.17717475994513E+00  -3.03840931016824E-13   1.16892287944891E-15
     -1.36715235921116E-15  -1.14258725527810E-15  -6.63504992978986E-17  -2.63356241709026E-17  -1.22362476386508E-15
     -1.14258725602227E-15  -9.11522793050471E-13   1.17248618532355E-15  -8.76354875689818E-18  -2.98989292998904E-17
     -2.11103916121359E-16  -2.63356234267294E-17   1.35986127204783E-16  -2.98989300440635E-17  -1.51920465508412E-13
      5.62345534702133E-17
      1.00000000000000E+04
      8.00000000000000E-01   0.00000000000000E+00  -9.67717475994513E+00  -4.55761396525235E-13   1.16176210424288E-15
     -1.33117188824906E-15  -1.13634258590959E-15  -5.79886197079351E-17  -2.54195183332354E-17  -1.19957789786728E-15
     -1.13634258655163E-15   1.21536372406729E-12   1.16703049580831E-15  -1.14897903087378E-17  -3.06879092549966E-17
     -1.89507757183765E-16  -2.54195176911876E-17   1.20033098763215E-16  -3.06879098970445E-17  -1.51920465508412E-13
      5.61074275881939E-17
      1.00000000000000E+04
      8.00000000000000E-01   0.00000000000000E+00  -1.01771747599451E+01   0.00000000000000E+00   1.15485657560451E-15
     -1.29999733593371E-15  -1.13031728559751E-15  -5.13138960394577E-17  -2.45392900070206E-17  -1.18053314455633E-15
     -1.13031728615347E-15   7.59602327542059E-13   1.16176577638630E-15  -1.43234981897843E-17  -3.14484902314075E-17
     -1.71633863595770E-16  -2.45392894510647E-17   1.05995160281233E-16  -3.14484907873635E-17  -3.03840931016824E-13
      5.59877802383462E-17
      1.00000000000000E+04
      8.00000000000000E-01   0.00000000000000E+00  -1.06771747599451E+01  -4.55761396525235E-13   1.14817310894921E-15
     -1.27561062831263E-15  -1.12448132656420E-15  -4.62513379585583E-17  -2.36917823850139E-17  -1.16649254866737E-15
     -1.12448132704217E-15   7.59602327542059E-13   1.15666471915350E-15  -1.80824077977722E-17  -3.21833921102166E-17
     -1.55577621279803E-16  -2.36917819070456E-17   9.12600047366310E-17  -3.21833925881849E-17   0.00000000000000E+00
      5.58751744948456E-17
      1.00000000000000E+04
      8.00000000000000E-01   0.00000000000000E+00  -1.11771747599451E+01  -4.55761396525235E-13   1.14168613895242E-15
     -1.25481515020047E-15  -1.11881149424226E-15  -4.25564461781501E-17  -2.28746447101548E-17  -1.16317653722519E-15
     -1.11881149463241E-15  -1.21536372406729E-12   1.15170612353885E-15  -2.54031820613149E-17  -3.28946289049695E-17
     -1.34854629466496E-16  -2.28746443199987E-17   6.68995991419614E-17  -3.28946292951254E-17  -3.03840931016824E-13
      5.57692736148937E-17
      1.00000000000000E+04
      8.00000000000000E-01   0.00000000000000E+00  -1.16771747599451E+01  -4.55761396525235E-13   1.13537613545425E-15
     -1.23736333594286E-15  -1.11328999839881E-15  -3.96759480018839E-17  -2.20861370554248E-17  -1.18813951815329E-15
     -1.11328999864189E-15   1.82304558610094E-12   1.14687367363325E-15  -4.48785267188194E-17  -3.35836749891737E-17
     -8.88310254468951E-17  -2.20861368123461E-17   4.27326368368736E-18  -3.35836752322523E-17   1.51920465508412E-13
      5.56698120438360E-17
      1.00000000000000E+04
      8.00000000000000E-01   0.00000000000000E+00  -1.21771747599451E+01  -3.03840931016824E-13   1.12922862650022E-15
     -1.22033154780001E-15  -1.10790361531028E-15  -3.73139729529274E-17  -2.13250111899706E-17  -1.29863463085870E-15
     -1.10790361521310E-15  -2.43072744813459E-12   1.14215518282642E-15  -1.03821868342874E-16  -3.42515676120682E-17
      4.00842816967327E-17  -2.13250112871433E-17  -1.81241343174932E-16  -3.42515675148957E-17   0.00000000000000E+00
      5.55765788015537E-17
      1.00000000000000E+04
      8.00000000000000E-01   0.00000000000000E+00  -1.26771747599451E+01   0.00000000000000E+00   1.12323359771256E-15
     -1.20632157336361E-15  -1.10264316450135E-15  -3.52858392452440E-17  -2.05904332111967E-17  -1.66621446748845E-15
     -1.10264316348185E-15   1.21536372406729E-12   1.13754213730372E-15  -2.88301807106515E-16  -3.48989738208716E-17
      4.24379136536318E-16  -2.05904342307035E-17  -7.47971025707133E-16  -3.48989728013648E-17   3.03840931016824E-13
      5.54894070317988E-17
      1.00000000000000E+04
      8.00000000000000E-01   0.00000000000000E+00  -1.31771747599451E+01  -3.03840931016824E-13   1.11738511974560E-15
     -1.19283799988523E-15  -1.09750319210496E-15  -3.34219339906197E-17  -1.98819276406271E-17  -2.80407309984157E-15
     -1.09750318845800E-15  -1.51920465508412E-12   1.13302942719433E-15  -8.64601593855150E-16  -3.55262387347644E-17
      1.57706865459993E-15  -1.98819312875732E-17  -2.47511002368653E-15  -3.55262350878183E-17   4.55761396525235E-13
      5.54081663753189E-17
      1.00000000000000E+04
      8.00000000000000E-01   0.00000000000000E+00  -1.36771747599451E+01   0.00000000000000E+00   1.11168110438433E-15
     -1.18166308493663E-15  -1.09248177328601E-15  -3.15579495173251E-17  -1.91993310983375E-17  -6.19870184932355E-15
     -1.09248176214281E-15  -1.21536372406729E-12   1.12861518737815E-15  -2.63439022932260E-15  -3.61334252334444E-17
      4.98513819395123E-15  -1.91993422415353E-17  -7.65111419148882E-15  -3.61334140902467E-17   1.51920465508412E-13
      5.53327563315272E-17
      1.00000000000000E+04
      8.00000000000000E-01   0.00000000000000E+00  -1.41771747599451E+01  -3.03840931016824E-13   1.10612311464826E-15
     -1.17069466735857E-15  -1.08758036668743E-15  -2.95065504111353E-17  -1.85427479608818E-17  -1.60513089077049E-14
     -1.08758033447923E-15  -3.03840931016824E-13   1.12430068571608E-15  -7.94865487397771E-15  -3.67203512345063E-17
      1.48504307640932E-14  -1.85427801690783E-17  -2.28285936536894E-14  -3.67203190263098E-17  -4.55761396525235E-13
      5.52630991949118E-17
      1.00000000000000E+04
      8.00000000000000E-01   0.00000000000000E+00  -1.46771747599451E+01   0.00000000000000E+00   1.10071616562284E-15
     -1.16209442648701E-15  -1.08280366328032E-15  -2.70826406562715E-17  -1.79125023425428E-17  -4.39170569403670E-14
     -1.08280357313497E-15  -1.82304558610094E-12   1.12009020121344E-15  -2.35114158670509E-14  -3.72866280760624E-17
      4.27271853233907E-14  -1.79125924878927E-17  -6.62656822629758E-14  -3.72865379307126E-17   9.11522793050471E-13
      5.51991304182270E-17
      1.00000000000000E+04
      8.00000000000000E-01   0.00000000000000E+00  -1.51771747599451E+01  -3.03840931016824E-13   1.09546845963396E-15
     -1.15523536162996E-15  -1.07815937808875E-15  -2.40119667774049E-17  -1.73090815452245E-17  -1.20660236302109E-13
     -1.07815913244846E-15  -3.03840931016824E-13   1.11599083263806E-15  -6.78758475432288E-14  -3.78317001870153E-17
      1.19480254471957E-13  -1.73093271855080E-17  -1.87380122191624E-13  -3.78314545467319E-17  -1.51920465508412E-13
      5.51407817328228E-17
      1.00000000000000E+04
      8.00000000000000E-01   0.00000000000000E+00  -1.56771747599451E+01   3.03840931016824E-13   1.09039100866855E-15
     -1.15192117472481E-15  -1.07365794239909E-15  -1.97946612417951E-17  -1.67330662695046E-17  -3.26227671941852E-13
     -1.07365729036441E-15   1.82304558610094E-12   1.11201217019496E-15  -1.90774596865715E-13  -3.83548798280740E-17
      3.25055546722594E-13  -1.67337183041848E-17  -5.15849920892747E-13  -3.83542277933936E-17  -3.03840931016824E-13
      5.50879460972419E-17
      1.00000000000000E+04
      8.00000000000000E-01   0.00000000000000E+00  -1.61771747599451E+01   0.00000000000000E+00   1.08549711398070E-15
     -1.15418556747985E-15  -1.06931207185811E-15  -1.33944018430633E-17  -1.61850421226107E-17  -8.61014321481178E-13
     -1.06931038734808E-15   5.16529582728600E-12   1.10816574471353E-15  -5.21055762533159E-13  -3.88553573629866E-17
      8.59846217940114E-13  -1.61867266326324E-17  -1.38091538109142E-12  -3.88536728529650E-17   7.59602327542059E-13
      5.50403994857079E-17
      1.00000000000000E+04
      8.00000000000000E-01   0.00000000000000E+00  -1.66771747599451E+01  -7.59602327542059E-13   1.08080170163909E-15
     -1.16835474640602E-15  -1.06513621730079E-15  -2.52634717469923E-18  -1.56654843383753E-17  -2.21004930817858E-12
     -1.06513198746492E-15   4.86145489626918E-12   1.10446412806261E-15  -1.38059681757247E-12  -3.93321405960990E-17
      2.20887799435851E-12  -1.56697141742411E-17  -3.58947734849868E-12  -3.93279107602332E-17   1.21536372406729E-12
      5.49976249346360E-17
      1.00000000000000E+04
      8.00000000000000E-01   0.00000000000000E+00  -1.71771747599451E+01   4.55761396525235E-13   1.07632055559543E-15
     -1.20665558457510E-15  -1.06114595405603E-15   1.78457848123676E-17  -1.51746015393741E-17  -5.50394968232047E-12
     -1.06113564693459E-15   8.05178467194583E-12   1.10091947249703E-15  -3.54256253664040E-12  -3.97838255599169E-17
      5.50276056031176E-12  -1.51849086608091E-17  -9.04530524770892E-12  -3.97735184384818E-17   3.64609117220188E-12
      5.49584270988438E-17
      1.00000000000000E+04
      8.00000000000000E-01   0.00000000000000E+00  -1.76771747599451E+01   1.51920465508412E-13   1.07206954535612E-15
     -1.29577038203619E-15  -1.05735743220674E-15   5.84155186709210E-17  -1.47121131493935E-17  -1.32727273927107E-11
     -1.05733310267322E-15   2.18765470332113E-11   1.09754111523487E-15  -8.78662574121972E-12  -4.02080125586694E-17
      1.32714901387165E-11  -1.47364426829137E-17  -2.20580574686830E-11  -4.01836830251492E-17   8.81138699948788E-12
      5.49201257080137E-17
      1.00000000000000E+04
      8.00000000000000E-01   0.00000000000000E+00  -1.81771747599451E+01   3.03840931016824E-13   1.06806400511846E-15
     -1.48565873822560E-15  -1.05378708605847E-15   1.40101969389770E-16  -1.42769190600510E-17  -3.09278388133824E-11
     -1.05373157436671E-15   5.21087196693852E-11   1.09433162421816E-15  -2.10207906417316E-11  -4.06000498491565E-17
      3.09264926431733E-11  -1.43324307518039E-17  -5.19471432017920E-11  -4.05445381574036E-17   2.12688651711777E-11
      5.48769689089572E-17
      1.00000000000000E+04
      8.00000000000000E-01   0.00000000000000E+00  -1.86771747599451E+01  -3.03840931016824E-13   1.06431846272392E-15
     -1.86090007800552E-15  -1.05045185538713E-15   2.98230198819318E-16  -1.38666073369236E-17  -6.94650942127950E-11
     -1.05032975224926E-15   1.18194122165544E-10   1.09128040219839E-15  -4.83809455558923E-11  -4.09506499469143E-17
      6.94635303423355E-11  -1.39887104747896E-17  -1.17844177682049E-10  -4.08285468090482E-17   4.80068671006581E-11
      5.48172572833135E-17
      1.00000000000000E+04
      8.00000000000000E-01   0.00000000000000E+00  -1.91771747599451E+01  -4.55761396525235E-13   1.06084688999547E-15
     -2.52551014419953E-15  -1.04737012697135E-15   5.76521225620460E-16  -1.34767630242718E-17  -1.49916491456577E-10
     -1.04711211692654E-15   2.55834063916165E-10   1.08835406053686E-15  -1.06777583260630E-10  -4.12419436081290E-17
      1.49914542218749E-10  -1.37347730690724E-17  -2.56691548950077E-10  -4.09839335633284E-17   1.07103928183430E-10
      5.47187066323858E-17
      1.00000000000000E+04
      8.00000000000000E-01   0.00000000000000E+00  -1.96771747599451E+01   1.51920465508412E-13   1.05766345802505E-15
     -3.51292554616858E-15  -1.04456330890957E-15   9.90095075424449E-16  -1.31001491155583E-17  -3.09618347296181E-10
     -1.04404202237659E-15   5.33696595331051E-10   1.08548416747234E-15  -2.25028144674935E-10  -4.14421450936454E-17
      3.09615824373599E-10  -1.36214356485285E-17  -5.34642978950409E-10  -4.09208585606750E-17   2.25601891279992E-10
      5.45422942096422E-17
      1.00000000000000E+04
      8.00000000000000E-01   0.00000000000000E+00  -2.01771747599451E+01  -1.51920465508412E-13   1.05478331313592E-15
     -4.64077709522049E-15  -1.04205719652364E-15   1.45919358805712E-15  -1.27261166123191E-17  -6.08740518577257E-10
     -1.04105631812129E-15   1.06010100831770E-09   1.08255725363604E-15  -4.50422477100820E-10  -4.15009355128789E-17
      6.08737337465575E-10  -1.37269950146763E-17  -1.05915835538461E-09  -4.05000571105210E-17   4.51203782559983E-10
      5.42270521249767E-17
      1.00000000000000E+04
      8.00000000000000E-01   0.00000000000000E+00  -2.06771747599451E+01  -6.07681862033647E-13   1.05222215668157E-15
     -5.50739810789210E-15  -1.03988109001971E-15   1.80899895259443E-15  -1.23410666618406E-17  -1.13229382616807E-09
     -1.03806843480537E-15   1.98575240466045E-09   1.07941966346895E-15  -8.50878300659128E-10  -4.13512286612827E-17
      1.13229012723582E-09  -1.41537218761828E-17  -1.98316661890656E-09  -3.95385734469394E-17   8.50602686381598E-10
      5.36922953230380E-17
      1.00000000000000E+04
      8.00000000000000E-01   0.00000000000000E+00  -2.11771747599451E+01   0.00000000000000E+00   1.04999297171338E-15
     -5.84104128594089E-15  -1.03806192058774E-15   1.91823644758915E-15  -1.19310511256721E-17  -1.97967922373518E-09
     -1.03498946040094E-15   3.48961309272822E-09   1.07591498380273E-15  -1.50702916129826E-09  -4.09255233996829E-17
      1.97967530143470E-09  -1.50035113124797E-17  -3.48670254451108E-09  -3.78530632128734E-17   1.50735485877446E-09
      5.28565745249985E-17
      1.00000000000000E+04
      8.00000000000000E-01   0.00000000000000E+00  -2.16771747599451E+01   3.03840931016824E-13   1.04809940023724E-15
     -5.73449722119352E-15  -1.03661267516556E-15   1.82912352533544E-15  -1.14867250716453E-17  -3.23664752752636E-09
     -1.03176873550879E-15   5.72649002687407E-09   1.07195767584617E-15  -2.48954091108617E-09  -4.01889403357738E-17
      3.23664362261350E-09  -1.63306647284078E-17  -5.72618270457075E-09  -3.53450006790094E-17   2.48967258875185E-09
      5.16756654070890E-17
      1.00000000000000E+04
      8.00000000000000E-01   0.00000000000000E+00  -2.21771747599451E+01  -6.07681862033647E-13   1.04652862862985E-15
     -5.41565598800632E-15  -1.03552017763482E-15   1.64870329236113E-15  -1.10084509949652E-17  -4.93857900875909E-09
     -1.02843287223272E-15   8.76641854169739E-09   1.06760509172067E-15  -3.82845793055193E-09  -3.91722194859038E-17
      4.93857524148796E-09  -1.80957563970561E-17  -8.76703152332078E-09  -3.20849140838088E-17   3.82809188988096E-09
      5.01806704808551E-17
      1.00000000000000E+04
      8.00000000000000E-01   0.00000000000000E+00  -2.26771747599451E+01   3.03840931016824E-13   1.04524922825225E-15
     -5.01051411317401E-15  -1.03474160434602E-15   1.44057299993970E-15  -1.05076239062850E-17  -7.04930942587150E-09
     -1.02508783401298E-15   1.25440728370296E-08   1.06306271471268E-15  -5.49466767269619E-09  -3.79748806977632E-17
      7.04930585621757E-09  -2.01613942393333E-17  -1.25439720883525E-08  -2.83211103647079E-17   5.49465939650824E-09
      4.84825046038400E-17
      1.00000000000000E+04
      8.00000000000000E-01   0.00000000000000E+00  -2.31771747599451E+01   0.00000000000000E+00   1.04421667542497E-15
     -4.58231844742323E-15  -1.03421413641167E-15   1.23559948352673E-15  -1.00025390133151E-17  -9.47327500199269E-09
     -1.02187463055235E-15   1.68829213319498E-08   1.05860368939106E-15  -7.40905108010957E-09  -3.67290588371938E-17
      9.47327165553186E-09  -2.23420448726412E-17  -1.68823215000578E-08  -2.43895529778573E-17   7.40931302331075E-09
      4.67315978502270E-17
      1.00000000000000E+04
      8.00000000000000E-01   0.00000000000000E+00  -2.36771747599451E+01  -6.07681862033647E-13   1.04338306997745E-15
     -4.19539842104188E-15  -1.03387134282369E-15   1.05686078967278E-15  -9.51172715387021E-18  -1.20913470742159E-08
     -1.01891253668728E-15   2.15646543175225E-08   1.05446376980665E-15  -9.47207985032566E-09  -3.55512331177941E-17
      1.20913439352643E-08  -2.44705332902786E-17  -2.15634227287312E-08  -2.05924269813751E-17   9.47239294491498E-09
      4.50629602712193E-17
      1.00000000000000E+04
      8.00000000000000E-01   0.00000000000000E+00  -2.41771747599451E+01  -1.51920465508412E-13   1.04270520711951E-15
     -3.89179029920403E-15  -1.03365613363688E-15   9.15845369478579E-16  -9.04907348261586E-18  -1.47949762343618E-08
     -1.01626811816780E-15   2.63882810178801E-08   1.05078256652554E-15  -1.15926738857544E-08  -3.45144483563685E-17
      1.47949732581800E-08  -2.64370889516942E-17  -2.63876462281177E-08  -1.71264328872758E-17   1.15928988024814E-08
      4.35635218382327E-17
      1.00000000000000E+04
      8.00000000000000E-01   0.00000000000000E+00  -2.46771747599451E+01   3.03840931016824E-13   1.04214824331601E-15
     -3.67216556861389E-15  -1.03352587168358E-15   8.10177135428109E-16  -8.62237163243539E-18  -1.75034030039746E-08
     -1.01395646749437E-15   3.12073501042724E-08   1.04760411894612E-15  -1.37030658412028E-08  -3.36476514499359E-17
      1.75034001424513E-08  -2.81917758216470E-17  -3.12064651735288E-08  -1.40782472606959E-17   1.37027702274622E-08
      4.22700230827841E-17
      1.00000000000000E+04
      8.00000000000000E-01   0.00000000000000E+00  -2.51771747599451E+01   1.51920465508412E-13   1.04168579866454E-15
     -3.51267093304043E-15  -1.03345152563143E-15   7.30352434533245E-16  -8.23427303314655E-18  -2.01652593470062E-08
     -1.01195840750462E-15   3.59247843992396E-08   1.04490759126194E-15  -1.57604114830886E-08  -3.29491837548974E-17
      2.01652565647046E-08  -2.97273911599597E-17  -3.59256673174932E-08  -1.14560656280518E-17   1.57597733304461E-08
      4.11834567870135E-17
      1.00000000000000E+04
      8.00000000000000E-01   0.00000000000000E+00  -2.56771747599451E+01  -3.03840931016824E-13   1.04129843147980E-15
     -3.38899764952885E-15  -1.03341441391329E-15   6.66609578101650E-16  -7.88401756657616E-18  -2.27525013292091E-08
     -1.01023825167478E-15   4.04939443198706E-08   1.04263969030136E-15  -1.77417475294344E-08  -3.24014386242408E-17
      2.27524986071244E-08  -3.10601798050838E-17  -4.04942454699838E-08  -9.22527638571381E-18   1.77412719620723E-08
      4.02854561907094E-17
      1.00000000000000E+04
      8.00000000000000E-01   0.00000000000000E+00  -2.61771747599451E+01  -1.51920465508412E-13   1.04097184208173E-15
     -3.27930385554471E-15  -1.03340286212410E-15   6.11991436815935E-16  -7.56897995773653E-18  -2.52528979550533E-08
     -1.00875593161589E-15   4.48879399437704E-08   1.04073711113059E-15  -1.96376142931493E-08  -3.19811795128661E-17
      2.52528952874544E-08  -3.22159104659435E-17  -4.48905089686323E-08  -7.33424900463608E-18   1.96373912920828E-08
      3.95501594705622E-17
      1.00000000000000E+04