DF-ISE text

Info {
  version   = 1.0
  type      = xyplot
  datasets  = [
    "frequency"
    "v(Ntop)" "v(Ptop)" "v(Pbot)" "a(Ntop,Ntop)" "c(Ntop,Ntop)"
    "a(Ntop,Ptop)" "c(Ntop,Ptop)" "a(Ntop,Pbot)" "c(Ntop,Pbot)" "a(Ptop,Ntop)"
    "c(Ptop,Ntop)" "a(Ptop,Ptop)" "c(Ptop,Ptop)" "a(Ptop,Pbot)" "c(Ptop,Pbot)"
    "a(Pbot,Ntop)" "c(Pbot,Ntop)" "a(Pbot,Ptop)" "c(Pbot,Ptop)" "a(Pbot,Pbot)"
    "c(Pbot,Pbot)" ]
  functions = [
    Frequency
    Voltage Voltage Voltage Admittance Capacitance
    Admittance Capacitance Admittance Capacitance Admittance
    Capacitance Admittance Capacitance Admittance Capacitance
    Admittance Capacitance Admittance Capacitance Admittance
    Capacitance ]
}

Data {
      1.00000000000000E+04
      8.00000000000000E-01   0.00000000000000E+00  -5.00000000000000E-02  -4.55761396525235E-13   1.39963647791241E-15
     -2.48127811266218E-15  -1.29444964569034E-15  -4.17264338233334E-15  -1.05186832222053E-16  -2.49334676147259E-15
     -1.29444964674840E-15   6.07681862033647E-13   1.29446167450384E-15   2.39943736854888E-16  -1.20277539846373E-20
     -4.15936127080208E-15  -1.05186831163989E-16   2.26654853252568E-16  -1.20288120418789E-20   1.51920465508412E-13
      1.05198859974859E-16
      1.00000000000000E+04
      8.00000000000000E-01   0.00000000000000E+00  -1.45555555555556E-01  -4.55761396525235E-13   1.39549445650309E-15
     -2.47141123863513E-15  -1.29443680990037E-15  -3.93061755499441E-15  -1.01057646602781E-16  -2.48342250745877E-15
     -1.29443681118760E-15   2.12688651711777E-12   1.29445360497048E-15   2.30899190123402E-16  -1.67937809446790E-20
     -3.91851500799691E-15  -1.01057645315550E-16   2.18795498281217E-16  -1.67950681752249E-20  -3.03840931016824E-13
      1.01074440382674E-16
      1.00000000000000E+04
      8.00000000000000E-01   0.00000000000000E+00  -3.28172839506173E-01  -4.55761396525235E-13   1.38876981669709E-15
     -2.45816718169839E-15  -1.29439775766947E-15  -3.55334468005388E-15  -9.43720590276605E-17  -2.46716046312151E-15
     -1.29439775933526E-15   1.36728418957571E-12   1.29442857812051E-15   2.16385159634631E-16  -3.08187831323101E-20
     -3.54425724256692E-15  -9.43720573618902E-17   2.07303034126872E-16  -3.08204489085138E-20   0.00000000000000E+00
      9.44028778111732E-17
      1.00000000000000E+04
      8.00000000000000E-01   0.00000000000000E+00  -6.77174759945130E-01  -4.55761396525235E-13   1.37884558518332E-15
     -2.44655563861050E-15  -1.29422407019747E-15  -3.05000040493168E-15  -8.46215149858627E-17  -2.44520509751689E-15
     -1.29422407244305E-15   2.43072744813459E-12   1.29431356721639E-15   1.95724862211887E-16  -8.94947712254142E-20
     -3.05128021781635E-15  -8.46215127402956E-17   1.97007873556310E-16  -8.94970167964713E-20  -4.55761396525235E-13
      8.47110097564756E-17
      1.00000000000000E+04
      8.00000000000000E-01   0.00000000000000E+00  -1.17717475994513E+00  -4.55761396525235E-13   1.36812262017933E-15
     -2.47395442928762E-15  -1.29339079506630E-15  -2.55457317318491E-15  -7.47318251130743E-17  -2.43256172088369E-15
     -1.29339079809591E-15   2.27880698262618E-12   1.29373608799501E-15   1.76044210728290E-16  -3.45289897549748E-19
     -2.59578579994064E-15  -7.47318220834746E-17   2.17259662621071E-16  -3.45292927150442E-19   4.55761396525235E-13
      7.50771150104583E-17
      1.00000000000000E+04
      8.00000000000000E-01   0.00000000000000E+00  -1.67717475994513E+00  -4.55761396525235E-13   1.35810182455181E-15
     -2.59560119037272E-15  -1.29062229236916E-15  -2.15527308172536E-15  -6.74795321827587E-17  -2.44244605116383E-15
     -1.29062229664721E-15   4.55761396525235E-13   1.29170758321420E-15   1.62748524516203E-16  -1.08528656509911E-18
     -2.30817137606493E-15  -6.74795279047049E-17   3.15642902104409E-16  -1.08529084315250E-18   0.00000000000000E+00
      6.85648187480385E-17
      1.00000000000000E+04
      8.00000000000000E-01   0.00000000000000E+00  -2.17717475994513E+00  -4.55761396525235E-13   1.34507564921013E-15
     -2.83203486350186E-15  -1.28324304432942E-15  -1.70072210605233E-15  -6.18326048807361E-17  -2.45865101487754E-15
     -1.28324305065688E-15   7.59602327542059E-13   1.28594410460004E-15   1.52151931432097E-16  -2.70105394152805E-18
     -2.07388817503439E-15  -6.18325985532906E-17   5.25317684264513E-16  -2.70106026897494E-18  -1.51920465508412E-13
      6.45336588220870E-17
      1.00000000000000E+04
      8.00000000000000E-01   0.00000000000000E+00  -2.67717475994513E+00  -4.55761396525235E-13   1.32406374356895E-15
     -3.13548930258460E-15  -1.26752936554135E-15  -1.27440080293846E-15  -5.65343780276345E-17  -2.43393825561864E-15
     -1.26752937461454E-15   2.73456837915141E-12   1.27303677221391E-15   1.37638168539162E-16  -5.50739759734833E-18
     -1.97606836462443E-15  -5.65343689544449E-17   8.39305206030558E-16  -5.50740667053826E-18  -3.03840931016824E-13
      6.20417756253160E-17
      1.00000000000000E+04
      8.00000000000000E-01   0.00000000000000E+00  -3.17717475994513E+00  -4.55761396525235E-13   1.29287486881003E-15
     -3.51856623597738E-15  -1.24183098042375E-15  -1.07787998233372E-15  -5.10438883863596E-17  -2.33347244139376E-15
     -1.24183099298885E-15   1.21536372406729E-12   1.25119139711723E-15   1.16388712981987E-16  -9.36040412612408E-18
     -2.26272593649937E-15  -5.10438758212799E-17   1.30124607906532E-15  -9.36041669120487E-18  -1.51920465508412E-13
      6.04042925128854E-17
      1.00000000000000E+04
      8.00000000000000E-01   0.00000000000000E+00  -3.67717475994513E+00  -4.55761396525235E-13   1.25736118425286E-15
     -3.72054411759648E-15  -1.21144029699195E-15  -8.23769579248766E-16  -4.59208872608777E-17  -2.23384526619603E-15
     -1.21144031086028E-15   1.51920465508412E-12   1.22483819094947E-15   9.78880771893579E-17  -1.33978800872443E-17
     -2.31065085903717E-15  -4.59208733925533E-17   1.58477140242251E-15  -1.33978939555691E-17   1.51920465508412E-13
      5.93187673481079E-17
      1.00000000000000E+04
      8.00000000000000E-01   0.00000000000000E+00  -4.17717475994513E+00  -4.55761396525235E-13   1.22652371435465E-15
     -3.79087986125477E-15  -1.18465145868500E-15  -6.37508192524714E-16  -4.18722556696812E-17  -2.23619504282346E-15
     -1.18465147167055E-15  -1.36728418957571E-12   1.20138340464605E-15   9.15444200053298E-17  -1.67319329734344E-17
     -2.19195872321677E-15  -4.18722426841367E-17   1.64600254729420E-15  -1.67319459589790E-17  -1.51920465508412E-13
      5.86041886429657E-17
      1.00000000000000E+04
      8.00000000000000E-01   0.00000000000000E+00  -4.67717475994513E+00  -4.55761396525235E-13   1.20317154561099E-15
     -3.66181147224930E-15  -1.16425425924185E-15  -4.93182271083142E-16  -3.89172863691632E-17  -2.26774992410710E-15
     -1.16425426982388E-15  -1.06344325855888E-12   1.18345913221771E-15   8.92200888937208E-17  -1.92048623917348E-17
     -1.88685386954469E-15  -3.89172757871340E-17   1.48288458444988E-15  -1.92048729737637E-17   1.51920465508412E-13
      5.81221487609479E-17
      1.00000000000000E+04
      8.00000000000000E-01   0.00000000000000E+00  -5.17717475994513E+00  -4.55761396525235E-13   1.18546922910094E-15
     -3.21654686179002E-15  -1.14877072235369E-15  -3.72054479906969E-16  -3.66985067472392E-17  -2.13393757619627E-15
     -1.14877072988222E-15  -1.21536372406729E-12   1.16984412217827E-15   7.38654851846582E-17  -2.10733922941294E-17
     -1.45440048818723E-15  -3.66984992187127E-17   1.15621188877241E-15  -2.10733998226560E-17  -1.51920465508412E-13
      5.77718990416106E-17
      1.00000000000000E+04
      8.00000000000000E-01   0.00000000000000E+00  -5.67717475994513E+00  -4.55761396525235E-13   1.17127814249253E-15
     -2.61954899270954E-15  -1.13636034886373E-15  -2.70369654054142E-16  -3.49177936288236E-17  -1.86465327612059E-15
     -1.13636035372616E-15   7.59602327542059E-13   1.15893809808339E-15   4.87126583085816E-17  -2.25777443558115E-17
     -1.02453907957252E-15  -3.49177887663961E-17   8.02892411116911E-16  -2.25777492182386E-17   7.59602327542059E-13
      5.74955379840924E-17
      1.00000000000000E+04
      8.00000000000000E-01   0.00000000000000E+00  -6.17717475994513E+00  -4.55761396525235E-13   1.15925787699423E-15
     -2.15254101791258E-15  -1.12585520096115E-15  -2.00604051155778E-16  -3.34026760331606E-17  -1.63450263829101E-15
     -1.12585520412017E-15   1.82304558610094E-12   1.14971574097367E-15   2.85244484798740E-17  -2.38605368521008E-17
     -7.18071408595923E-16  -3.34026728741473E-17   5.45999702928535E-16  -2.38605400111142E-17   0.00000000000000E+00
      5.72632128848397E-17
      1.00000000000000E+04
      8.00000000000000E-01   0.00000000000000E+00  -6.67717475994513E+00  -4.55761396525235E-13   1.14865947577719E-15
     -1.85651894503681E-15  -1.11659966879992E-15  -1.56929425693424E-16  -3.20598069772942E-17  -1.48494630779348E-15
     -1.11659967099574E-15   1.51920465508412E-12   1.14159933539808E-15   1.58915085132366E-17  -2.49996644007321E-17
     -5.28734627220984E-16  -3.20598047814778E-17   3.87697246615767E-16  -2.49996665965485E-17  -1.51920465508412E-13
      5.70594713785383E-17
      1.00000000000000E+04
      8.00000000000000E-01   0.00000000000000E+00  -7.17717475994513E+00  -4.55761396525235E-13   1.13905544895114E-15
     -1.67215491095433E-15  -1.10821849018148E-15  -1.28173914959709E-16  -3.08369587697888E-17  -1.38918455207180E-15
     -1.10821849181728E-15  -1.51920465508412E-13   1.13425742113319E-15   7.96308310236696E-18  -2.60389293141827E-17
     -4.11191523227550E-16  -3.08369571339938E-17   2.90986644426854E-16  -2.60389309499774E-17  -1.51920465508412E-13
      5.68758880832641E-17
      1.00000000000000E+04
      8.00000000000000E-01   0.00000000000000E+00  -7.67717475994513E+00  -4.55761396525235E-13   1.13018606669551E-15
     -1.55125927864625E-15  -1.10048301843621E-15  -1.07254052903054E-16  -2.97030482593353E-17  -1.32410341599699E-15
     -1.10048301972047E-15   3.03840931016824E-13   1.12748754144369E-15   2.49621355513707E-18  -2.70045217211884E-17
     -3.33943667102143E-16  -2.97030469750836E-17   2.29178206398692E-16  -2.70045230054399E-17  -1.51920465508412E-13
      5.67075699804370E-17
      1.00000000000000E+04
      8.00000000000000E-01   0.00000000000000E+00  -8.17717475994513E+00  -4.55761396525235E-13   1.12188289759319E-15
     -1.46727026978817E-15  -1.09324446250595E-15  -9.08489470227601E-17  -2.86384350872967E-17  -1.27693577827359E-15
     -1.09324446355230E-15   1.67112512059253E-12   1.12115753948712E-15  -1.66738243038011E-18  -2.79130759319833E-17
     -2.80259259519330E-16  -2.86384340409495E-17   1.87747146762005E-16  -2.79130769783305E-17   0.00000000000000E+00
      5.65515110190314E-17
      1.00000000000000E+04
      8.00000000000000E-01   0.00000000000000E+00  -8.67717475994513E+00  -4.55761396525235E-13   1.11403069749118E-15
     -1.40497335807411E-15  -1.08640058521499E-15  -7.76564585858235E-17  -2.76301122762062E-17  -1.24061085190551E-15
     -1.08640058609032E-15  -9.11522793050471E-13   1.11517625675917E-15  -5.10248192231076E-18  -2.87756706663604E-17
     -2.41675974647208E-16  -2.76301114008797E-17   1.58907451349524E-16  -2.87756715416868E-17  -7.59602327542059E-13
      5.64057829426454E-17
      1.00000000000000E+04
      8.00000000000000E-01   0.00000000000000E+00  -9.17717475994513E+00  -4.55761396525235E-13   1.10654735781305E-15
     -1.35812908965752E-15  -1.07987819528365E-15  -6.71884296474599E-17  -2.66691625294229E-17  -1.21165297505912E-15
     -1.07987819603078E-15  -6.07681862033647E-13   1.10947814004579E-15  -8.10998143661254E-18  -2.95999440150029E-17
     -2.13695628924681E-16  -2.66691617822925E-17   1.38369026635527E-16  -2.95999447621335E-17  -1.51920465508412E-13
      5.62691065436968E-17
      1.00000000000000E+04
      8.00000000000000E-01   0.00000000000000E+00  -9.67717475994513E+00  -4.55761396525235E-13   1.09937256288068E-15
     -1.32148003092533E-15  -1.07362326147256E-15  -5.89876340650181E-17  -2.57493014081952E-17  -1.18753546356122E-15
     -1.07362326211934E-15   9.11522793050471E-13   1.10401456578242E-15  -1.08834933886021E-17  -3.03913036614648E-17
     -1.92876349450789E-16  -2.57493007614156E-17   1.22994529043015E-16  -3.03913043082445E-17  -6.07681862033647E-13
      5.61406050687441E-17
      1.00000000000000E+04
      8.00000000000000E-01   0.00000000000000E+00  -1.01771747599451E+01  -4.55761396525235E-13   1.09246094820554E-15
     -1.29051027720919E-15  -1.06759495810131E-15  -5.23435011916394E-17  -2.48659901042630E-17  -1.16813488491721E-15
     -1.06759495866301E-15  -2.12688651711777E-12   1.09874862323393E-15  -1.36780357261098E-17  -3.11536645694715E-17
     -1.75325056545735E-16  -2.48659895425656E-17   1.09295265731616E-16  -3.11536651311690E-17   3.03840931016824E-13
      5.60196546731694E-17
      1.00000000000000E+04
      8.00000000000000E-01   0.00000000000000E+00  -1.06771747599451E+01  -4.55761396525235E-13   1.08577781136378E-15
     -1.26480813895806E-15  -1.06176192973536E-15  -4.70742756628522E-17  -2.40158816284353E-17  -1.15281635664370E-15
     -1.06176193021969E-15  -9.11522793050471E-13   1.09365184171372E-15  -1.71386901038025E-17  -3.18899114927870E-17
     -1.59064286242764E-16  -2.40158811441096E-17   9.48561773371990E-17  -3.18899119771127E-17   1.51920465508412E-13
      5.59057931209159E-17
      1.00000000000000E+04
      8.00000000000000E-01   0.00000000000000E+00  -1.11771747599451E+01  -4.55761396525235E-13   1.07929638902185E-15
     -1.24370340118637E-15  -1.05609991249866E-15  -4.32067610847665E-17  -2.31964765232818E-17  -1.14687889613867E-15
     -1.05609991290080E-15  -6.07681862033647E-13   1.08870210175062E-15  -2.33075384982285E-17  -3.26021888470390E-17
     -1.40088106804019E-16  -2.31964761211434E-17   7.35909455932587E-17  -3.26021892491774E-17  -1.51920465508412E-13
      5.57986653699682E-17
      1.00000000000000E+04
      8.00000000000000E-01   0.00000000000000E+00  -1.16771747599451E+01  -4.55761396525235E-13   1.07299613254236E-15
     -1.22516717653635E-15  -1.05059022164765E-15  -4.02704774742107E-17  -2.24059108947136E-17  -1.16409878265467E-15
     -1.05059022192308E-15  -7.59602327542059E-13   1.08388230295844E-15  -3.88640569496881E-17  -3.32920810338722E-17
     -1.01990525285575E-16  -2.24059106192866E-17   2.28566310664570E-17  -3.32920813092992E-17  -1.51920465508412E-13
      5.56979919279338E-17
      1.00000000000000E+04
      8.00000000000000E-01   0.00000000000000E+00  -1.21771747599451E+01  -4.55761396525235E-13   1.06686162256534E-15
     -1.20898893495829E-15  -1.04521879780313E-15  -3.79286544509015E-17  -2.16428247622767E-17  -1.24831094794541E-15
     -1.04521879780001E-15   1.51920465508412E-13   1.07917952335563E-15  -8.51140790331773E-17  -3.39607255533605E-17
      1.43875216782426E-18  -2.16428247654002E-17  -1.24477603487570E-16  -3.39607255502370E-17   0.00000000000000E+00
      5.56035503160708E-17
      1.00000000000000E+04
      8.00000000000000E-01   0.00000000000000E+00  -1.26771747599451E+01  -4.55761396525235E-13   1.06088188776937E-15
     -1.19375696536199E-15  -1.03997561116420E-15  -3.59711432381566E-17  -2.09062766052453E-17  -1.53741389991409E-15
     -1.03997561042108E-15   1.51920465508412E-13   1.07458449731553E-15  -2.29271922075055E-16  -3.46088868926724E-17
      3.07565495832067E-16  -2.09062773483625E-17  -5.72800906732562E-16  -3.46088861495552E-17  -3.03840931016824E-13
      5.55151634976220E-17
      1.00000000000000E+04
      8.00000000000000E-01   0.00000000000000E+00  -1.31771747599451E+01  -4.55761396525235E-13   1.05504997456801E-15
     -1.18002104000935E-15  -1.03485429156707E-15  -3.42330574288850E-17  -2.01956830010056E-17  -2.44045991710965E-15
     -1.03485428872557E-15   7.59602327542059E-13   1.07009129748206E-15  -6.80209365644955E-16  -3.52370087544709E-17
      1.22618787069243E-15  -2.01956858425096E-17  -1.94064156228376E-15  -3.52370059129671E-17   4.55761396525235E-13
      5.54326917553955E-17
      1.00000000000000E+04
      8.00000000000000E-01   0.00000000000000E+00  -1.36771747599451E+01  -4.55761396525235E-13   1.04936266511821E-15
     -1.16804876669883E-15  -1.02985189445745E-15  -3.25083137598166E-17  -1.95107706607838E-17  -5.15131473139109E-15
     -1.02985188561999E-15   9.11522793050471E-13   1.06569714095655E-15  -2.06958399942630E-15  -3.58452553351787E-17
      3.95089870700389E-15  -1.95107794982377E-17  -6.05298223313198E-15  -3.58452464977247E-17  -1.51920465508412E-13
      5.53560259959331E-17
      1.00000000000000E+04
      8.00000000000000E-01   0.00000000000000E+00  -1.41771747599451E+01  -4.55761396525235E-13   1.04382026893594E-15
     -1.15739810692458E-15  -1.02496873609829E-15  -3.05703312159470E-17  -1.88515328376948E-17  -1.30583880324715E-14
     -1.02496871035019E-15  -7.59602327542059E-13   1.06140225860411E-15  -6.25834814537499E-15  -3.64335482520228E-17
      1.18707555053965E-14  -1.88515585857942E-17  -1.81596909885533E-14  -3.64335225039233E-17   0.00000000000000E+00
      5.52850810891696E-17
      1.00000000000000E+04
      8.00000000000000E-01   0.00000000000000E+00  -1.46771747599451E+01  -4.55761396525235E-13   1.03842642727688E-15
     -1.14839889025959E-15  -1.02020824291930E-15  -2.82087629799974E-17  -1.82181843575999E-17  -3.55313782585213E-14
     -1.02020817044728E-15   1.67112512059253E-12   1.05720977344131E-15  -1.85801958020238E-14  -3.70016029916511E-17
      3.43550224110363E-14  -1.82182568296201E-17  -5.29634139962797E-14  -3.70015305196309E-17  -3.03840931016824E-13
      5.52197873489509E-17
      1.00000000000000E+04
      8.00000000000000E-01   0.00000000000000E+00  -1.51771747599451E+01  -4.55761396525235E-13   1.03318787717429E-15
     -1.14116903075913E-15  -1.01557676667515E-15  -2.51810839669653E-17  -1.76111104992306E-17  -9.77425477548357E-14
     -1.01557656816116E-15   1.51920465508412E-13   1.05312553394283E-15  -5.38783572778037E-14  -3.75489657787838E-17
      9.65762796132178E-14  -1.76113090132237E-17  -1.50479817399142E-13  -3.75487672647907E-17   0.00000000000000E+00
      5.51600762784054E-17
      1.00000000000000E+04
      8.00000000000000E-01   0.00000000000000E+00  -1.56771747599451E+01  -4.55761396525235E-13   1.02811413000551E-15
     -1.13694144962976E-15  -1.01108332486142E-15  -2.11160930116900E-17  -1.70308051441795E-17  -2.65300163252040E-13
     -1.01108279510628E-15   1.51920465508412E-12   1.04915784155276E-15  -1.52183119180663E-13  -3.80750464450880E-17
      2.64141478318170E-13  -1.70313348993210E-17  -4.16345710422969E-13  -3.80745166899464E-17   1.51920465508412E-13
      5.51058515891225E-17
      1.00000000000000E+04
      8.00000000000000E-01   0.00000000000000E+00  -1.61771747599451E+01  -4.55761396525235E-13   1.02321703278600E-15
     -1.13818032645297E-15  -1.00673923987994E-15  -1.51989817370343E-17  -1.64777929060509E-17  -7.03754752089121E-13
     -1.00673786359485E-15   7.59602327542059E-13   1.04531699546409E-15  -4.17894492425130E-13  -3.85791318677973E-17
      7.02601069481998E-13  -1.64791691911402E-17  -1.12051075162330E-12  -3.85777555827081E-17   1.51920465508412E-13
      5.50569247736583E-17
      1.00000000000000E+04
      8.00000000000000E-01   0.00000000000000E+00  -1.66771747599451E+01  -4.55761396525235E-13   1.01851020322449E-15
     -1.14934897315626E-15  -1.00255767567508E-15  -5.56233626010242E-18  -1.59525275494988E-17  -1.81669425478338E-12
     -1.00255419926480E-15   5.01337536177759E-12   1.04161454125633E-15  -1.11371104531817E-12  -3.90603419895618E-17
      1.81553947206898E-12  -1.59560039597840E-17  -2.92925608163562E-12  -3.90568655792765E-17   1.36728418957571E-12
      5.50128695382632E-17
      1.00000000000000E+04
      8.00000000000000E-01   0.00000000000000E+00  -1.71771747599451E+01  -3.03840931016824E-13   1.01400836496000E-15
     -1.18078759046946E-15  -9.98553111447193E-16   1.19764026075923E-17  -1.54552535128136E-17  -4.55227790526161E-12
     -9.98544586773774E-16   8.05178467194583E-12   1.03806203347679E-15  -2.87569909844113E-12  -3.95174467010577E-17
      4.55110942402381E-12  -1.54637781862360E-17  -7.42679656850062E-12  -3.95089220276354E-17   2.58264791364300E-12
      5.49727002142182E-17
      1.00000000000000E+04
      8.00000000000000E-01   0.00000000000000E+00  -1.76771747599451E+01  -3.03840931016824E-13   1.00972665788749E-15
     -1.25536124917365E-15  -9.94740850802510E-16   4.64396034050374E-17  -1.49858070849842E-17  -1.10506179464112E-11
     -9.94720593012468E-16   2.03573423781272E-11   1.03466897705499E-15  -7.18103771948496E-12  -3.99483840414224E-17
      1.10494092057449E-11  -1.50060648750289E-17  -1.82304005023399E-11  -3.99281262513778E-17   6.98834141338694E-12
      5.49341911266720E-17
      1.00000000000000E+04
      8.00000000000000E-01   0.00000000000000E+00  -1.81771747599451E+01  -3.03840931016824E-13   1.00568005513068E-15
     -1.41692752300675E-15  -9.91136736677989E-16   1.15853790997964E-16  -1.45433184527082E-17  -2.59340764422149E-11
     -9.91090179401690E-16   4.37530940664226E-11   1.03143937868997E-15  -1.73064906226672E-11  -4.03491992870093E-17
      2.59327755422323E-11  -1.45898757290044E-17  -4.32391502922896E-11  -4.03026420107131E-17   1.73189330679589E-11
      5.48925177399095E-17
      1.00000000000000E+04
      8.00000000000000E-01   0.00000000000000E+00  -1.86771747599451E+01  -3.03840931016824E-13   1.00188306605692E-15
     -1.74155697303495E-15  -9.87757305065488E-16   2.51934600520993E-16  -1.41257609914347E-17  -5.87028381117029E-11
     -9.87654083538286E-16   9.82925411839424E-11   1.02836606577916E-15  -4.01553187761771E-11  -4.07119822388440E-17
      5.87013481699229E-11  -1.42289825186367E-17  -9.88564150082978E-11  -4.06087607116421E-17   4.02589233597291E-11
      5.48377432302082E-17
      1.00000000000000E+04
      8.00000000000000E-01   0.00000000000000E+00  -1.91771747599451E+01  -3.03840931016824E-13   9.98349902347638E-16
     -2.33337867057312E-15  -9.84620601275541E-16   4.97943186067608E-16  -1.37293010721850E-17  -1.27783458239531E-10
     -9.84400551371844E-16   2.16030901952962E-10   1.02542188939408E-15  -8.94247768811239E-11  -4.10213380200635E-17
      1.27781623071946E-10  -1.39493509758816E-17  -2.17205902007921E-10  -4.08012881163668E-17   8.96330746499630E-11
      5.47506390912985E-17
      1.00000000000000E+04
      8.00000000000000E-01   0.00000000000000E+00  -1.96771747599451E+01  -1.51920465508412E-13   9.95095148450396E-16
     -3.25415673006907E-15  -9.81747666426781E-16   8.80846942149348E-16  -1.33474820237363E-17  -2.66478928110991E-10
     -9.81298561254510E-16   4.59711328628454E-10   1.02254789747096E-15  -1.90388336117409E-10  -4.12493362153331E-17
      2.66476554927783E-10  -1.37965871960085E-17  -4.56864010197212E-10  -4.08002310430610E-17   1.90356343282040E-10
      5.45968182387597E-17
      1.00000000000000E+04
      8.00000000000000E-01   0.00000000000000E+00  -2.01771747599451E+01  -1.51920465508412E-13   9.92134586976025E-16
     -4.38170575394008E-15  -9.79164072427274E-16   1.34804007477477E-15  -1.29705145488102E-17  -5.29773729292519E-10
     -9.78291596772974E-16   9.16991929808774E-10   1.01964201668987E-15  -3.85564699762447E-10  -4.13504199157926E-17
      5.29770695275319E-10  -1.38429902031090E-17  -9.15334046978339E-10  -4.04779442614936E-17   3.85877982391366E-10
      5.43209344641603E-17
      1.00000000000000E+04
      8.00000000000000E-01   0.00000000000000E+00  -2.06771747599451E+01  -1.51920465508412E-13   9.89485137058325E-16
     -5.34815427188630E-15  -9.76899752432371E-16   1.73936240077835E-15  -1.25853846259299E-17  -9.98052022607267E-10
     -9.75297859377539E-16   1.73918548914030E-09   1.01655882469545E-15  -7.38186076411613E-10  -4.12609653161288E-17
      9.98048414809203E-10  -1.41872776807629E-17  -1.73623275185436E-09  -3.96590722612952E-17   7.37725780508848E-10
      5.38463499420086E-17
      1.00000000000000E+04
      8.00000000000000E-01   0.00000000000000E+00  -2.11771747599451E+01  -1.51920465508412E-13   9.87162256833740E-16
     -5.80821568125344E-15  -9.74984387588898E-16   1.90562431885309E-15  -1.21778692450384E-17  -1.77023395500287E-09
     -9.72226407828232E-16   3.10024093963016E-09   1.01313785047796E-15  -1.32731685445067E-09  -4.09114426477764E-17
      1.77023005211370E-09  -1.49358490057035E-17  -3.09754500094781E-09  -3.81534628871118E-17   1.32763294807801E-09
      5.30893118927849E-17
      1.00000000000000E+04
      8.00000000000000E-01   0.00000000000000E+00  -2.16771747599451E+01  -3.03840931016824E-13   9.85173824408984E-16
     -5.78199955655820E-15  -9.73436787341192E-16   1.85317653768590E-15  -1.17370370678754E-17  -2.93955177979288E-09
     -9.69014117134993E-16   5.17137264590634E-09   1.00927003101977E-15  -2.22869976188452E-09  -4.02559138834744E-17
      2.93954785073091E-09  -1.61597072740748E-17  -5.16824575947629E-09  -3.58332436772722E-17   2.22882514947391E-09
      5.19929509511638E-17
      1.00000000000000E+04
      8.00000000000000E-01   0.00000000000000E+00  -2.21771747599451E+01  -3.03840931016824E-13   9.83512482117131E-16
     -5.49763267556685E-15  -9.72251802817625E-16   1.68774579378890E-15  -1.12606792995055E-17  -4.55673615743462E-09
     -9.65668334037320E-16   8.04525209192896E-09   1.00497572229875E-15  -3.48460667362106E-09  -3.93073882602709E-17
      4.55673234664791E-09  -1.78441480798043E-17  -8.04133733251667E-09  -3.27239194799715E-17   3.48490355829746E-09
      5.05680675596535E-17
      1.00000000000000E+04
      8.00000000000000E-01   0.00000000000000E+00  -2.26771747599451E+01  -3.03840931016824E-13   9.82151709342058E-16
     -5.10930717100673E-15  -9.71393843241841E-16   1.48505641536583E-15  -1.07578661002703E-17  -6.60253425209601E-09
     -9.62280269801627E-16   1.16842030022520E-08   1.00043057277319E-15  -5.08043455805190E-09  -3.81503029703956E-17
      6.60253062799744E-09  -1.98714395404816E-17  -1.16829637009716E-08  -2.90367295301854E-17   5.08022036660129E-09
      4.89081690712317E-17
      1.00000000000000E+04
      8.00000000000000E-01   0.00000000000000E+00  -2.31771747599451E+01  -3.03840931016824E-13   9.81049602946476E-16
     -4.68185922486148E-15  -9.70803598857874E-16   1.27908321383258E-15  -1.02460040886527E-17  -8.99171358882142E-09
     -9.58989787897582E-16   1.59397990820736E-08   9.95902522434274E-16  -6.94689118480253E-09  -3.69127345357703E-17
      8.99171018605959E-09  -2.20598150489356E-17  -1.59386000917396E-08  -2.50989235754926E-17   6.94656328537213E-09
      4.71587386237576E-17
      1.00000000000000E+04
      8.00000000000000E-01   0.00000000000000E+00  -2.36771747599451E+01  -3.03840931016824E-13   9.80158258522608E-16
     -4.28020891231846E-15  -9.70413939579380E-16   1.09365576764358E-15  -9.74431894332122E-18  -1.16057525828789E-08
     -9.55927064979697E-16   2.05919075768722E-08   9.91644950903961E-16  -8.98639530365203E-09  -3.57178859224764E-17
      1.16057493964284E-08  -2.42311935430051E-17  -2.05921436064229E-08  -2.12310113227896E-17   8.98670321668459E-09
      4.54622048645291E-17
      1.00000000000000E+04
      8.00000000000000E-01   0.00000000000000E+00  -2.41771747599451E+01  -3.03840931016824E-13   9.79432790695374E-16
     -3.95293498803628E-15  -9.70164564263266E-16   9.43745670774311E-16  -9.26822643216044E-18  -1.43298570011029E-08
     -9.53173263119676E-16   2.54352839377458E-08   9.87823099940942E-16  -1.11038366032955E-08  -3.46498368192813E-17
      1.43298539921695E-08  -2.62595275757575E-17  -2.54336896517421E-08  -1.76585356756764E-17   1.11035629830788E-08
      4.39180632510891E-17
      1.00000000000000E+04
      8.00000000000000E-01   0.00000000000000E+00  -2.46771747599451E+01  -3.03840931016824E-13   9.78836170387477E-16
     -3.71151947552742E-15  -9.70009103326146E-16   8.30376605191871E-16  -8.82706706136879E-18  -1.70748746397678E-08
     -9.50755068653446E-16   3.03025118117043E-08   9.84502196941595E-16  -1.32251900304625E-08  -3.37471282873347E-17
      1.70748717590959E-08  -2.80811017340593E-17  -3.03000609591606E-08  -1.44930936146440E-17   1.32255880453003E-08
      4.25741953487184E-17
      1.00000000000000E+04
      8.00000000000000E-01   0.00000000000000E+00  -2.51771747599451E+01  -3.03840931016824E-13   9.78340043884223E-16
     -3.53820303959657E-15  -9.69915408569651E-16   7.45413478238975E-16  -8.42463531472333E-18  -1.97820464148773E-08
     -9.48659878683857E-16   3.50854238273057E-08   9.81674018278079E-16  -1.53018123567979E-08  -3.30141395933632E-17
      1.97820436225349E-08  -2.96801652005039E-17  -3.50838552338926E-08  -1.17586097075840E-17   1.53021888883348E-08
      4.14387749071496E-17
      1.00000000000000E+04
      8.00000000000000E-01   0.00000000000000E+00  -2.56771747599451E+01  -1.51920465508412E-13   9.77923445594458E-16
     -3.40746198899282E-15  -9.69862593962922E-16   6.78887584379855E-16  -8.06085163164425E-18  -2.24180283077644E-08
     -9.46854482675643E-16   3.97272017304497E-08   9.79290620172646E-16  -1.73064388614869E-08  -3.24361374947953E-17
      2.24180255797786E-08  -3.10689629189285E-17  -3.97244637623981E-08  -9.42802620750732E-18   1.73063236693217E-08
      4.04969891262290E-17
      1.00000000000000E+04
      8.00000000000000E-01   0.00000000000000E+00  -2.61771747599451E+01  -1.51920465508412E-13   9.77570982224255E-16
     -3.29638391831259E-15  -9.69837568943692E-16   6.23056264966565E-16  -7.73341328059504E-18  -2.49672647907976E-08
     -9.45298825073639E-16   4.41957903029141E-08   9.77289557395544E-16  -1.92268213193246E-08  -3.19907323197446E-17
      2.49672621177719E-08  -3.22721571506498E-17  -4.41940828140473E-08  -7.45198844968610E-18   1.92275098761411E-08
      3.97241456004797E-17
      1.00000000000000E+04