DF-ISE text

Info {
  version   = 1.0
  type      = xyplot
  datasets  = [
    "time"
    "Ntop OuterVoltage" "Ntop InnerVoltage" "Ntop QuasiFermiPotential" "Ntop DisplacementCurrent" "Ntop eCurrent"
    "Ntop hCurrent" "Ntop TotalCurrent" "Ntop Charge" "Ptop OuterVoltage" "Ptop InnerVoltage"
    "Ptop QuasiFermiPotential" "Ptop DisplacementCurrent" "Ptop eCurrent" "Ptop hCurrent" "Ptop TotalCurrent"
    "Ptop Charge" "Pbot OuterVoltage" "Pbot InnerVoltage" "Pbot QuasiFermiPotential" "Pbot DisplacementCurrent"
    "Pbot eCurrent" "Pbot hCurrent" "Pbot TotalCurrent" "Pbot Charge" ]
  functions = [
    Time
    OuterVoltage InnerVoltage QuasiFermiPotential DisplacementCurrent eCurrent
    hCurrent TotalCurrent Charge OuterVoltage InnerVoltage
    QuasiFermiPotential DisplacementCurrent eCurrent hCurrent TotalCurrent
    Charge OuterVoltage InnerVoltage QuasiFermiPotential DisplacementCurrent
    eCurrent hCurrent TotalCurrent Charge ]
}

Data {
      1.00000000000000E-03
      8.00000000000000E-01   8.00000000000000E-01   0.00000000000000E+00   0.00000000000000E+00   6.29366804074505E-15
      5.29271062963128E-19   6.29419731180801E-15   3.42622778416700E-15   0.00000000000000E+00   0.00000000000000E+00
      0.00000000000000E+00   0.00000000000000E+00  -2.15935842377549E-18  -1.57027610767592E-15  -1.57243546609969E-15
     -1.51146070673524E-15  -5.00000000000000E-02  -5.00000000000000E-02   0.00000000000000E+00   0.00000000000000E+00
     -2.29808638254622E-17  -4.69878098188285E-15  -4.72176184570831E-15  -1.91476707743176E-15
      2.91111111111111E-03
      8.00000000000000E-01   8.00000000000000E-01   0.00000000000000E+00   0.00000000000000E+00   6.60950706727574E-15
     -4.50742345238714E-19   6.60905632493050E-15   3.42711477854890E-15   0.00000000000000E+00   0.00000000000000E+00
      0.00000000000000E+00   0.00000000000000E+00  -1.95769791527452E-18  -1.56906741867535E-15  -1.57102511659063E-15
     -1.51145934164722E-15  -1.45555555555556E-01  -1.45555555555555E-01   0.00000000000000E+00   0.00000000000000E+00
     -2.29808936234224E-17  -5.01505031471645E-15  -5.03803120833988E-15  -1.91565543690168E-15
      6.56345679012346E-03
      8.00000000000000E-01   8.00000000000000E-01   0.00000000000000E+00   0.00000000000000E+00   7.17345414378049E-15
      3.24850015129904E-19   7.17377899379562E-15   3.42880628676557E-15   0.00000000000000E+00   0.00000000000000E+00
      0.00000000000000E+00   0.00000000000000E+00  -1.35455400786863E-18  -1.56696847207503E-15  -1.56832302608290E-15
     -1.51145511170028E-15  -3.28172839506173E-01  -3.28172839506173E-01   0.00000000000000E+00   0.00000000000000E+00
     -2.29809505233435E-17  -5.58247501718939E-15  -5.60545596771274E-15  -1.91735117506529E-15
      1.35434951989026E-02
      8.00000000000000E-01   8.00000000000000E-01   0.00000000000000E+00   0.00000000000000E+00   8.14522247550158E-15
     -8.20419800723804E-19   8.14440205570086E-15   3.43202091181855E-15   0.00000000000000E+00   0.00000000000000E+00
      0.00000000000000E+00   0.00000000000000E+00  -2.07493445702690E-18  -1.56363320514869E-15  -1.56570813960572E-15
     -1.51143573374805E-15  -6.77174759945130E-01  -6.77174759945130E-01   0.00000000000000E+00   0.00000000000000E+00
     -2.29810591088887E-17  -6.55571285698626E-15  -6.57869391609514E-15  -1.92058517807050E-15
      2.35434951989026E-02
      8.00000000000000E-01   8.00000000000000E-01   0.00000000000000E+00   0.00000000000000E+00   9.35965068654512E-15
      6.72973676383376E-19   9.36032366022151E-15   3.43654802234661E-15   0.00000000000000E+00   0.00000000000000E+00
      0.00000000000000E+00   0.00000000000000E+00  -2.44450508330586E-18  -1.56021362817892E-15  -1.56265813326222E-15
     -1.51133954998890E-15  -1.17717475994513E+00  -1.17717475994513E+00   0.00000000000000E+00   0.00000000000000E+00
     -2.29812144897942E-17  -7.77468431246951E-15  -7.79766552695931E-15  -1.92520847235772E-15
      3.35434951989026E-02
      8.00000000000000E-01   8.00000000000000E-01   0.00000000000000E+00   0.00000000000000E+00   1.04054486358549E-14
     -1.16037356849407E-18   1.04042882622864E-14   3.44084766560230E-15   0.00000000000000E+00   0.00000000000000E+00
      0.00000000000000E+00   0.00000000000000E+00  -1.60553097130880E-18  -1.55840409920734E-15  -1.56000963017865E-15
     -1.51101056716063E-15  -1.67717475994513E+00  -1.67717475994513E+00   0.00000000000000E+00   0.00000000000000E+00
     -2.29813702142265E-17  -8.82129726189358E-15  -8.84427863210781E-15  -1.92983709844166E-15
      4.35434951989026E-02
      8.00000000000000E-01   8.00000000000000E-01   0.00000000000000E+00   0.00000000000000E+00   1.12710612431635E-14
      8.20201420928457E-19   1.12718814445844E-14   3.44463101112477E-15   0.00000000000000E+00   0.00000000000000E+00
      0.00000000000000E+00   0.00000000000000E+00  -1.80659842145857E-18  -1.55863504074107E-15  -1.56044163916253E-15
     -1.51010862629797E-15  -2.17717475994513E+00  -2.17717475994513E+00   0.00000000000000E+00   0.00000000000000E+00
     -2.29815280045501E-17  -9.68845827741736E-15  -9.71143980542191E-15  -1.93452238482681E-15
      5.35434951989026E-02
      8.00000000000000E-01   8.00000000000000E-01   0.00000000000000E+00   0.00000000000000E+00   1.19217323614875E-14
     -3.14867779568483E-18   1.19185836836918E-14   3.44744441875466E-15   0.00000000000000E+00   0.00000000000000E+00
      0.00000000000000E+00   0.00000000000000E+00  -2.00796294284055E-18  -1.56180715601015E-15  -1.56381511895300E-15
     -1.50810977712500E-15  -2.67717475994513E+00  -2.67717475994513E+00   0.00000000000000E+00   0.00000000000000E+00
     -2.29816902323580E-17  -1.03317868745065E-14  -1.03547685647388E-14  -1.93933464162966E-15
      6.35434951989026E-02
      8.00000000000000E-01   8.00000000000000E-01   0.00000000000000E+00   0.00000000000000E+00   1.24446105412294E-14
     -6.24427234409635E-18   1.24383662688853E-14   3.44874209873395E-15   0.00000000000000E+00   0.00000000000000E+00
      0.00000000000000E+00   0.00000000000000E+00  -2.00693680744679E-18  -1.56929345171338E-15  -1.57130038852083E-15
     -1.50442473687215E-15  -3.17717475994513E+00  -3.17717475994513E+00   0.00000000000000E+00   0.00000000000000E+00
     -2.29818583743681E-17  -1.08440840219902E-14  -1.08670658803645E-14  -1.94431736186180E-15
      7.35434951989026E-02
      8.00000000000000E-01   8.00000000000000E-01   0.00000000000000E+00   0.00000000000000E+00   1.28700808210137E-14
      4.23129080952634E-19   1.28705039500947E-14   3.44822200033470E-15   0.00000000000000E+00   0.00000000000000E+00
      0.00000000000000E+00   0.00000000000000E+00  -1.37701348512430E-18  -1.58294014966912E-15  -1.58431716315424E-15
     -1.49872295554587E-15  -3.67717475994513E+00  -3.67717475994513E+00   0.00000000000000E+00   0.00000000000000E+00
     -2.29820334072333E-17  -1.12632047535332E-14  -1.12861867869404E-14  -1.94949904478883E-15
      8.35434951989026E-02
      8.00000000000000E-01   8.00000000000000E-01   0.00000000000000E+00   0.00000000000000E+00   1.32059100365386E-14
     -3.42706678663806E-18   1.32024829697520E-14   3.44605752140637E-15   0.00000000000000E+00   0.00000000000000E+00
      0.00000000000000E+00   0.00000000000000E+00  -2.29024224598863E-18  -1.60434745839581E-15  -1.60663770064180E-15
     -1.49115655051450E-15  -4.17717475994513E+00  -4.17717475994513E+00   0.00000000000000E+00   0.00000000000000E+00
     -2.29822160680546E-17  -1.15728630530421E-14  -1.15958452691102E-14  -1.95490097089187E-15
      9.35434951989026E-02
      8.00000000000000E-01   8.00000000000000E-01   0.00000000000000E+00   0.00000000000000E+00   1.34675984806417E-14
     -1.17866133295068E-18   1.34664198193088E-14   3.44268499501150E-15   0.00000000000000E+00   0.00000000000000E+00
      0.00000000000000E+00   0.00000000000000E+00  -2.18780541019401E-18  -1.63276766184662E-15  -1.63495546725681E-15
     -1.48214670142904E-15  -4.67717475994513E+00  -4.67717475994513E+00   0.00000000000000E+00   0.00000000000000E+00
     -2.29824068902167E-17  -1.18084819451618E-14  -1.18314643520520E-14  -1.96053829358246E-15
      1.03543495198903E-01
      8.00000000000000E-01   8.00000000000000E-01   0.00000000000000E+00   0.00000000000000E+00   1.36676568117308E-14
      3.83743665932775E-18   1.36714942483901E-14   3.43848442261239E-15   0.00000000000000E+00   0.00000000000000E+00
      0.00000000000000E+00   0.00000000000000E+00  -7.52178005212944E-19  -1.66166865882079E-15  -1.66242083682601E-15
     -1.47206488761663E-15  -5.17717475994513E+00  -5.17717475994513E+00   0.00000000000000E+00   0.00000000000000E+00
     -2.29826061853217E-17  -1.19860908053788E-14  -1.20090734115641E-14  -1.96641953499576E-15
      1.13543495198903E-01
      8.00000000000000E-01   8.00000000000000E-01   0.00000000000000E+00   0.00000000000000E+00   1.38165534321361E-14
     -2.92053456403114E-18   1.38136328975721E-14   3.43369723979841E-15   0.00000000000000E+00   0.00000000000000E+00
      0.00000000000000E+00   0.00000000000000E+00  -1.72955989544884E-18  -1.68221332618547E-15  -1.68394288608092E-15
     -1.46114910729556E-15  -5.67717475994513E+00  -5.67717475994513E+00   0.00000000000000E+00   0.00000000000000E+00
     -2.29828140945586E-17  -1.21067071973966E-14  -1.21296900114911E-14  -1.97254813250285E-15
      1.23543495198903E-01
      8.00000000000000E-01   8.00000000000000E-01   0.00000000000000E+00   0.00000000000000E+00   1.39228699573990E-14
     -7.99022455688556E-19   1.39220709349433E-14   3.42846688989939E-15   0.00000000000000E+00   0.00000000000000E+00
      0.00000000000000E+00   0.00000000000000E+00  -1.37466763688160E-18  -1.69259008195507E-15  -1.69396474959195E-15
     -1.44954228357229E-15  -6.17717475994513E+00  -6.17717475994513E+00   0.00000000000000E+00   0.00000000000000E+00
     -2.29830306614533E-17  -1.22051231546899E-14  -1.22281061853513E-14  -1.97892460632711E-15
      1.33543495198903E-01
      8.00000000000000E-01   8.00000000000000E-01   0.00000000000000E+00   0.00000000000000E+00   1.40033126492988E-14
      3.34902786327022E-18   1.40066616771621E-14   3.42288180882067E-15   0.00000000000000E+00   0.00000000000000E+00
      0.00000000000000E+00   0.00000000000000E+00  -1.74793935151651E-18  -1.69596417675660E-15  -1.69771211610812E-15
     -1.43733381794381E-15  -6.67717475994513E+00  -6.67717475994513E+00   0.00000000000000E+00   0.00000000000000E+00
     -2.29832558800117E-17  -1.22859663051740E-14  -1.23089495610540E-14  -1.98554799087685E-15
      1.43543495198903E-01
      8.00000000000000E-01   8.00000000000000E-01   0.00000000000000E+00   0.00000000000000E+00   1.40677400177965E-14
     -1.77210483792842E-17   1.40500189694172E-14   3.41700023767687E-15   0.00000000000000E+00   0.00000000000000E+00
      0.00000000000000E+00   0.00000000000000E+00  -2.82536068011877E-18  -1.69519166563631E-15  -1.69801702631643E-15
     -1.42458364386587E-15  -7.17717475994513E+00  -7.17717475994513E+00   0.00000000000000E+00   0.00000000000000E+00
     -2.29834897202713E-17  -1.23290184533805E-14  -1.23520019431008E-14  -1.99241659381101E-15
      1.53543495198903E-01
      8.00000000000000E-01   8.00000000000000E-01   0.00000000000000E+00   0.00000000000000E+00   1.41188340029356E-14
      4.97372849482810E-18   1.41238077314305E-14   3.41086305721143E-15   0.00000000000000E+00   0.00000000000000E+00
      0.00000000000000E+00   0.00000000000000E+00  -1.96550449656895E-18  -1.69185791062762E-15  -1.69382341512419E-15
     -1.41133467407006E-15  -7.67717475994513E+00  -7.67717475994513E+00   0.00000000000000E+00   0.00000000000000E+00
     -2.29837321413451E-17  -1.24070005841649E-14  -1.24299843163063E-14  -1.99952838314136E-15
      1.63543495198903E-01
      8.00000000000000E-01   8.00000000000000E-01   0.00000000000000E+00   0.00000000000000E+00   1.41618502413795E-14
     -1.75633364840774E-17   1.41442869048954E-14   3.40450054274919E-15   0.00000000000000E+00   0.00000000000000E+00
      0.00000000000000E+00   0.00000000000000E+00  -1.57445726110361E-18  -1.68676586753053E-15  -1.68834032479163E-15
     -1.39761935336896E-15  -8.17717475994513E+00  -8.17717475994513E+00   0.00000000000000E+00   0.00000000000000E+00
     -2.29839830982314E-17  -1.24329625970056E-14  -1.24559465801038E-14  -2.00688118938022E-15
      1.73543495198903E-01
      8.00000000000000E-01   8.00000000000000E-01   0.00000000000000E+00   0.00000000000000E+00   1.41995235410767E-14
     -4.15339092071289E-18   1.41953701501560E-14   3.39793614157662E-15   0.00000000000000E+00   0.00000000000000E+00
      0.00000000000000E+00   0.00000000000000E+00  -2.59950022711354E-18  -1.68032391120244E-15  -1.68292341142955E-15
     -1.38346332642233E-15  -8.67717475994513E+00  -8.67717475994513E+00   0.00000000000000E+00   0.00000000000000E+00
     -2.29842425455124E-17  -1.24894624961810E-14  -1.25124467387265E-14  -2.01447281515429E-15
      1.83543495198903E-01
      8.00000000000000E-01   8.00000000000000E-01   0.00000000000000E+00   0.00000000000000E+00   1.42293455688463E-14
     -2.14249402539765E-18   1.42272030748209E-14   3.39118873256787E-15   0.00000000000000E+00   0.00000000000000E+00
      0.00000000000000E+00   0.00000000000000E+00  -1.13442895200514E-18  -1.67275563986174E-15  -1.67389006881375E-15
     -1.36888763687635E-15  -9.17717475994513E+00  -9.17717475994513E+00   0.00000000000000E+00   0.00000000000000E+00
     -2.29845104394000E-17  -1.25303284955678E-14  -1.25533130060072E-14  -2.02230109569152E-15
      1.93543495198903E-01
      8.00000000000000E-01   8.00000000000000E-01   0.00000000000000E+00   0.00000000000000E+00   1.42568543472237E-14
     -2.98700092515169E-18   1.42538673462985E-14   3.38427405349054E-15   0.00000000000000E+00   0.00000000000000E+00
      0.00000000000000E+00   0.00000000000000E+00  -1.51363133600820E-18  -1.66417408454298E-15  -1.66568771587898E-15
     -1.35391012267290E-15  -9.67717475994513E+00  -9.67717475994513E+00   0.00000000000000E+00   0.00000000000000E+00
     -2.29847867388165E-17  -1.25651948436807E-14  -1.25881796304195E-14  -2.03036393081764E-15
      2.03543495198903E-01
      8.00000000000000E-01   8.00000000000000E-01   0.00000000000000E+00   0.00000000000000E+00   1.42813594419183E-14
     -1.45519592235498E-18   1.42799042459959E-14   3.37720563705105E-15   0.00000000000000E+00   0.00000000000000E+00
      0.00000000000000E+00   0.00000000000000E+00  -2.14197089403010E-18  -1.65459847201452E-15  -1.65674044290855E-15
     -1.33854633780990E-15  -1.01771747599451E+01  -1.01771747599451E+01   0.00000000000000E+00   0.00000000000000E+00
     -2.29850714058848E-17  -1.26001787316815E-14  -1.26231638030874E-14  -2.03865929924115E-15
      2.13543495198903E-01
      8.00000000000000E-01   8.00000000000000E-01   0.00000000000000E+00   0.00000000000000E+00   1.43021435643091E-14
     -3.45050750589658E-18   1.42986930568032E-14   3.36999544405617E-15   0.00000000000000E+00   0.00000000000000E+00
      0.00000000000000E+00   0.00000000000000E+00  -1.63996724889244E-18  -1.64384528291354E-15  -1.64548525016243E-15
     -1.32281018222778E-15  -1.06771747599451E+01  -1.06771747599451E+01   0.00000000000000E+00   0.00000000000000E+00
     -2.29853644060402E-17  -1.26302224422348E-14  -1.26532078066408E-14  -2.04718526182840E-15
      2.23543495198903E-01
      8.00000000000000E-01   8.00000000000000E-01   0.00000000000000E+00   0.00000000000000E+00   1.43217732043888E-14
      6.40813212091739E-18   1.43281813365097E-14   3.36265430904099E-15   0.00000000000000E+00   0.00000000000000E+00
      0.00000000000000E+00   0.00000000000000E+00  -1.89832325349742E-18  -1.63114717257728E-15  -1.63304549583078E-15
     -1.30671435041904E-15  -1.11771747599451E+01  -1.11771747599451E+01   0.00000000000000E+00   0.00000000000000E+00
     -2.29856657079307E-17  -1.26721501749710E-14  -1.26951358406789E-14  -2.05593995862194E-15
      2.33543495198903E-01
      8.00000000000000E-01   8.00000000000000E-01   0.00000000000000E+00   0.00000000000000E+00   1.43392634801118E-14
     -1.43129666541658E-17   1.43249505134576E-14   3.35519227267335E-15   0.00000000000000E+00   0.00000000000000E+00
      0.00000000000000E+00   0.00000000000000E+00  -1.36966094092962E-18  -1.61376603377616E-15  -1.61513569471709E-15
     -1.29027066966846E-15  -1.16771747599451E+01  -1.16771747599451E+01   0.00000000000000E+00   0.00000000000000E+00
     -2.29859752832172E-17  -1.26868288434573E-14  -1.27098148187405E-14  -2.06492160300489E-15
      2.43543495198903E-01
      8.00000000000000E-01   8.00000000000000E-01   0.00000000000000E+00   0.00000000000000E+00   1.43571014758252E-14
      3.12812087871088E-18   1.43602295967040E-14   3.34761884875351E-15   0.00000000000000E+00   0.00000000000000E+00
      0.00000000000000E+00   0.00000000000000E+00  -2.19831675157266E-18  -1.58266255419768E-15  -1.58486087094926E-15
     -1.27349037348894E-15  -1.21771747599451E+01  -1.21771747599451E+01   0.00000000000000E+00   0.00000000000000E+00
     -2.29862931063601E-17  -1.27523824326483E-14  -1.27753687257547E-14  -2.07412847526457E-15
      2.53543495198903E-01
      8.00000000000000E-01   8.00000000000000E-01   0.00000000000000E+00   0.00000000000000E+00   1.43729546056281E-14
     -2.82393587046952E-18   1.43701306697576E-14   3.33994325613338E-15   0.00000000000000E+00   0.00000000000000E+00
      0.00000000000000E+00   0.00000000000000E+00  -1.83538118258564E-18  -1.50880418452052E-15  -1.51063956570311E-15
     -1.25638433925953E-15  -1.26771747599451E+01  -1.26771747599451E+01   0.00000000000000E+00   0.00000000000000E+00
     -2.29866191544184E-17  -1.28365044849001E-14  -1.28594911040545E-14  -2.08355891687385E-15
      2.63543495198903E-01
      8.00000000000000E-01   8.00000000000000E-01   0.00000000000000E+00   0.00000000000000E+00   1.43890924930857E-14
     -4.61355986919539E-19   1.43886311370988E-14   3.33217463513712E-15   0.00000000000000E+00   0.00000000000000E+00
      0.00000000000000E+00   0.00000000000000E+00  -2.41862570228269E-18  -1.30056335963664E-15  -1.30298198533892E-15
     -1.23896330898754E-15  -1.31771747599451E+01  -1.31771747599451E+01   0.00000000000000E+00   0.00000000000000E+00
     -2.29869534069072E-17  -1.30626621983529E-14  -1.30856491517598E-14  -2.09321132614957E-15
      2.73543495198903E-01
      8.00000000000000E-01   8.00000000000000E-01   0.00000000000000E+00   0.00000000000000E+00   1.44040088339729E-14
     -3.46765820286145E-18   1.44005411757700E-14   3.32432226226710E-15   0.00000000000000E+00   0.00000000000000E+00
      0.00000000000000E+00   0.00000000000000E+00  -2.40588590059182E-18  -6.74878975535645E-16  -6.77284861436237E-16
     -1.22123810673270E-15  -1.36771747599451E+01  -1.36771747599451E+01   0.00000000000000E+00   0.00000000000000E+00
     -2.29872958457012E-17  -1.37002690184881E-14  -1.37232563143338E-14  -2.10308415553440E-15
      2.83543495198903E-01
      8.00000000000000E-01   8.00000000000000E-01   0.00000000000000E+00   0.00000000000000E+00   1.44172356808801E-14
     -2.30717960088656E-17   1.43941638848712E-14   3.31639577461202E-15   0.00000000000000E+00   0.00000000000000E+00
      0.00000000000000E+00   0.00000000000000E+00  -1.39619399045287E-18   1.22140834066980E-15   1.22001214667935E-15
     -1.20321986405733E-15  -1.41771747599451E+01  -1.41771747599451E+01   0.00000000000000E+00   0.00000000000000E+00
     -2.29876464550032E-17  -1.55911883850956E-14  -1.56141760315506E-14  -2.11317591055469E-15
      2.93543495198903E-01
      8.00000000000000E-01   8.00000000000000E-01   0.00000000000000E+00   0.00000000000000E+00   1.44312329811298E-14
      1.84270792192806E-17   1.44496600603491E-14   3.30840541551240E-15   0.00000000000000E+00   0.00000000000000E+00
      0.00000000000000E+00   0.00000000000000E+00  -2.02756235304088E-18   6.89435410830237E-15   6.89232654594933E-15
     -1.18492026499181E-15  -1.46771747599451E+01  -1.46771747599451E+01   0.00000000000000E+00   0.00000000000000E+00
     -2.29880052213725E-17  -2.13189986010771E-14  -2.13419866062984E-14  -2.12348515052059E-15
      3.03543495198903E-01
      8.00000000000000E-01   8.00000000000000E-01   0.00000000000000E+00   0.00000000000000E+00   1.44427479114380E-14
     -3.60331892450902E-17   1.44067147221929E-14   3.30036231564998E-15   0.00000000000000E+00   0.00000000000000E+00
      0.00000000000000E+00   0.00000000000000E+00  -1.33438814984964E-18   2.35072150804084E-14   2.35058806922585E-14
     -1.16635182426410E-15  -1.51771747599451E+01  -1.51771747599451E+01   0.00000000000000E+00   0.00000000000000E+00
     -2.29883721338291E-17  -3.78896070423176E-14  -3.79125954144514E-14  -2.13401049138588E-15
      3.13543495198903E-01
      8.00000000000000E-01   8.00000000000000E-01   0.00000000000000E+00   0.00000000000000E+00   1.44545180198498E-14
     -1.33692278999607E-17   1.44411487919498E-14   3.29227882985163E-15   0.00000000000000E+00  -9.18447372075268E-17
      0.00000000000000E+00   0.00000000000000E+00  -2.48415645638157E-18   7.09509877895385E-14   7.09485036330822E-14
     -1.14752821760560E-15  -1.56771747599451E+01  -1.56771747599451E+01   0.00000000000000E+00   0.00000000000000E+00
     -2.29887471840846E-17  -8.53666636778480E-14  -8.53896524250321E-14  -2.14475061224602E-15
      3.23543495198903E-01
      8.00000000000000E-01   8.00000000000000E-01   0.00000000000000E+00   0.00000000000000E+00   1.44621770790942E-14
     -1.98119554552762E-17   1.44423651236390E-14   3.28416896211622E-15   0.00000000000000E+00  -1.83689474415054E-16
      0.00000000000000E+00   0.00000000000000E+00  -1.82193558138944E-18   2.02787403872953E-13   2.02785581937371E-13
     -1.12846469254112E-15  -1.61771747599451E+01  -1.61771747599451E+01   0.00000000000000E+00   0.00000000000000E+00
     -2.29891303670582E-17  -2.17204957930644E-13  -2.17227947061011E-13  -2.15570426957512E-15
      3.33543495198903E-01
      8.00000000000000E-01   8.00000000000000E-01   0.00000000000000E+00   0.00000000000000E+00   1.44661279319526E-14
      8.05916552239443E-18   1.44741870974750E-14   3.27604893483473E-15   0.00000000000000E+00  -5.51068423245161E-16
      0.00000000000000E+00   0.00000000000000E+00  -1.09373548125429E-18   5.58613118024375E-13   5.58612024288894E-13
     -1.10917860546753E-15  -1.66771747599451E+01  -1.66771747599451E+01   0.00000000000000E+00   0.00000000000000E+00
     -2.29895216820219E-17  -5.73063221864687E-13  -5.73086211386369E-13  -2.16687032936719E-15
      3.43543495198903E-01
      8.00000000000000E-01   8.00000000000000E-01   0.00000000000000E+00   0.00000000000000E+00   1.44647351384408E-14
      1.67755719795689E-17   1.44815107104204E-14   3.26793800191825E-15   0.00000000000000E+00  -1.46951579532043E-15
      0.00000000000000E+00   0.00000000000000E+00  -1.44507261678736E-18   1.48983135817580E-12   1.48982991310318E-12
     -1.08969016145383E-15  -1.71771747599451E+01  -1.71771747599451E+01   0.00000000000000E+00   0.00000000000000E+00
     -2.29899211352259E-17  -1.50428843389247E-12  -1.50431142381360E-12  -2.17824784046442E-15
      3.53543495198903E-01
      8.00000000000000E-01   8.00000000000000E-01   0.00000000000000E+00   0.00000000000000E+00   1.44509060078923E-14
      3.76368366203601E-18   1.44546696915543E-14   3.25985968366917E-15   0.00000000000000E+00  -3.85747896271612E-15
      0.00000000000000E+00   0.00000000000000E+00  -1.72691618540967E-18   3.84876816321642E-12   3.84876643630024E-12
     -1.07002348467137E-15  -1.76771747599451E+01  -1.76771747599451E+01   0.00000000000000E+00   0.00000000000000E+00
     -2.29903287457848E-17  -3.86319811566305E-12  -3.86322110599179E-12  -2.18983619899781E-15
      3.63543495198903E-01
      8.00000000000000E-01   8.00000000000000E-01   0.00000000000000E+00   0.00000000000000E+00   1.44115343999935E-14
      3.39026540579967E-17   1.44454370540515E-14   3.25184373039182E-15   0.00000000000000E+00  -9.64369740679031E-15
      0.00000000000000E+00   0.00000000000000E+00  -1.32895885943749E-18   9.62163923692346E-12   9.62163790796460E-12
     -1.05020822667043E-15  -1.81771747599451E+01  -1.81771747599451E+01   0.00000000000000E+00   0.00000000000000E+00
     -2.29907445584188E-17  -9.63606035427409E-12  -9.63608334501865E-12  -2.20163550372140E-15
      3.73543495198903E-01
      8.00000000000000E-01   8.00000000000000E-01   0.00000000000000E+00   0.00000000000000E+00   1.43237065693783E-14
     -2.68173931165936E-18   1.43210248300666E-14   3.24392930806487E-15   0.00000000000000E+00  -2.32367185135043E-14
      0.00000000000000E+00   0.00000000000000E+00  -2.11732005299349E-18   2.32392338458564E-11   2.32392317285363E-11
     -1.03028202232948E-15  -1.86771747599451E+01  -1.86771747599451E+01   0.00000000000000E+00   0.00000000000000E+00
     -2.29911686696922E-17  -2.32535297621977E-11  -2.32535527533664E-11  -2.21364728573539E-15
      3.83543495198903E-01
      8.00000000000000E-01   8.00000000000000E-01   0.00000000000000E+00   0.00000000000000E+00   1.41408468027172E-14
     -1.31388959653205E-17   1.41277079067519E-14   3.23617009805859E-15   0.00000000000000E+00  -5.40965502152333E-14
      0.00000000000000E+00   0.00000000000000E+00  -1.47248369994657E-18   5.41169124239873E-11   5.41169109515036E-11
     -1.01029418451715E-15  -1.91771747599451E+01  -1.91771747599451E+01   0.00000000000000E+00   0.00000000000000E+00
     -2.29916012786666E-17  -5.41310156678091E-11  -5.41310386594103E-11  -2.22587591354144E-15
      3.93543495198903E-01
      8.00000000000000E-01   8.00000000000000E-01   0.00000000000000E+00   0.00000000000000E+00   1.38020905203353E-14
     -3.99003309763657E-18   1.37981004872377E-14   3.22864203051990E-15   0.00000000000000E+00  -1.21143208376728E-13
      0.00000000000000E+00   0.00000000000000E+00  -2.02728918325194E-18   1.21182810793342E-10   1.21182808766053E-10
     -9.90310947178283E-16  -1.96771747599451E+01  -1.96771747599450E+01   0.00000000000000E+00   0.00000000000000E+00
     -2.29920427769988E-17  -1.21196583874497E-10  -1.21196606866540E-10  -2.23833108334161E-15
      4.03543495198903E-01
      8.00000000000000E-01   8.00000000000000E-01   0.00000000000000E+00   0.00000000000000E+00   1.32459018667736E-14
     -3.16309409819859E-18   1.32427387726754E-14   3.22145377785731E-15   0.00000000000000E+00  -2.60104295771716E-13
      0.00000000000000E+00   0.00000000000000E+00  -2.22210236394532E-18   2.60086906056268E-10   2.60086903834165E-10
     -9.70422018657567E-16  -2.01771747599451E+01  -2.01771747599449E+01   0.00000000000000E+00   0.00000000000000E+00
     -2.29924938921212E-17  -2.60100123580445E-10  -2.60100146572939E-10  -2.25103175919974E-15
      4.13543495198903E-01
      8.00000000000000E-01   8.00000000000000E-01   0.00000000000000E+00   0.00000000000000E+00   1.24673683083061E-14
     -2.53997188183985E-17   1.24419685894877E-14   3.21475819985263E-15   0.00000000000000E+00  -5.32883165278070E-13
      0.00000000000000E+00   0.00000000000000E+00  -2.43515822906591E-18   5.32890004351876E-10   5.32890001916718E-10
     -9.50746777123781E-16  -2.06771747599451E+01  -2.06771747599446E+01   0.00000000000000E+00   0.00000000000000E+00
     -2.29929558793151E-17  -5.32902420892350E-10  -5.32902443885306E-10  -2.26401142272885E-15
      4.23543495198903E-01
      8.00000000000000E-01   8.00000000000000E-01   0.00000000000000E+00   0.00000000000000E+00   1.15456099894908E-14
     -2.71827567349420E-17   1.15184272327559E-14   3.20875930884189E-15   0.00000000000000E+00  -1.03766184097064E-12
      0.00000000000000E+00   0.00000000000000E+00  -2.02827851667048E-18   1.03770049544817E-09   1.03770049341990E-09
     -9.31436103626371E-16  -2.11771747599451E+01  -2.11771747599441E+01   0.00000000000000E+00   0.00000000000000E+00
     -2.29934307121357E-17  -1.03771198885368E-09  -1.03771201184711E-09  -2.27732320521553E-15
      4.33543495198903E-01
      8.00000000000000E-01   8.00000000000000E-01   0.00000000000000E+00   0.00000000000000E+00   1.05990318855947E-14
     -8.64271682640232E-18   1.05903891687683E-14   3.20370582832052E-15   0.00000000000000E+00  -1.91248296287233E-12
      0.00000000000000E+00   0.00000000000000E+00  -1.36240841553179E-18   1.91243890302840E-09   1.91243890166599E-09
     -9.12664127610357E-16  -2.16771747599451E+01  -2.16771747599432E+01   0.00000000000000E+00   0.00000000000000E+00
     -2.29939211559518E-17  -1.91244946906124E-09  -1.91244949205516E-09  -2.29104170071016E-15
      4.43543495198903E-01
      8.00000000000000E-01   8.00000000000000E-01   0.00000000000000E+00   0.00000000000000E+00   9.71282714571327E-15
     -4.55738604382840E-18   9.70826975966944E-15   3.19986429338374E-15   0.00000000000000E+00  -3.32578977902175E-12
      0.00000000000000E+00   0.00000000000000E+00  -1.79244291617358E-18   3.32582313014954E-09   3.32582312835710E-09
     -8.94606549284014E-16  -2.21771747599451E+01  -2.21771747599418E+01   0.00000000000000E+00   0.00000000000000E+00
     -2.29944305888470E-17  -3.32583281363240E-09  -3.32583283662683E-09  -2.30525774409973E-15
      4.53543495198903E-01
      8.00000000000000E-01   8.00000000000000E-01   0.00000000000000E+00   0.00000000000000E+00   8.92114018792534E-15
     -2.18731110702382E-17   8.89926707685511E-15   3.19747596547178E-15   0.00000000000000E+00  -5.45401602959456E-12
      0.00000000000000E+00   0.00000000000000E+00  -2.24052852942880E-18   5.45402128992507E-09   5.45402128768455E-09
     -8.77410508657416E-16  -2.26771747599451E+01  -2.26771747599397E+01   0.00000000000000E+00   0.00000000000000E+00
     -2.29949625408993E-17  -5.45403016395669E-09  -5.45403018695166E-09  -2.32006545681435E-15
      4.63543495198903E-01
      8.00000000000000E-01   8.00000000000000E-01   0.00000000000000E+00   0.00000000000000E+00   8.23205034685256E-15
     -3.97359675248423E-18   8.22807675010007E-15   3.19671564521829E-15   0.00000000000000E+00  -8.45155271783661E-12