DF-ISE text

Info {
  version   = 1.0
  type      = xyplot
  datasets  = [
    "time"
    "Ntop OuterVoltage" "Ntop InnerVoltage" "Ntop QuasiFermiPotential" "Ntop DisplacementCurrent" "Ntop eCurrent"
    "Ntop hCurrent" "Ntop TotalCurrent" "Ntop Charge" "Ptop OuterVoltage" "Ptop InnerVoltage"
    "Ptop QuasiFermiPotential" "Ptop DisplacementCurrent" "Ptop eCurrent" "Ptop hCurrent" "Ptop TotalCurrent"
    "Ptop Charge" "Pbot OuterVoltage" "Pbot InnerVoltage" "Pbot QuasiFermiPotential" "Pbot DisplacementCurrent"
    "Pbot eCurrent" "Pbot hCurrent" "Pbot TotalCurrent" "Pbot Charge" ]
  functions = [
    Time
    OuterVoltage InnerVoltage QuasiFermiPotential DisplacementCurrent eCurrent
    hCurrent TotalCurrent Charge OuterVoltage InnerVoltage
    QuasiFermiPotential DisplacementCurrent eCurrent hCurrent TotalCurrent
    Charge OuterVoltage InnerVoltage QuasiFermiPotential DisplacementCurrent
    eCurrent hCurrent TotalCurrent Charge ]
}

Data {
      1.00000000000000E-03
      8.00000000000000E-01   8.00000000000000E-01   0.00000000000000E+00   0.00000000000000E+00   6.31536998861697E-15
     -5.21971104613220E-19   6.31484801751236E-15   3.43956864865797E-15   0.00000000000000E+00   0.00000000000000E+00
      0.00000000000000E+00   0.00000000000000E+00  -2.44606693152473E-18  -1.59194732910267E-15  -1.59439339603420E-15
     -1.52480158557689E-15  -5.00000000000000E-02  -5.00000000000000E-02   0.00000000000000E+00   0.00000000000000E+00
     -2.29808638249808E-17  -4.69747375765318E-15  -4.72045462147817E-15  -1.91476706308109E-15
      2.91111111111111E-03
      8.00000000000000E-01   8.00000000000000E-01   0.00000000000000E+00   0.00000000000000E+00   6.62955299707762E-15
      1.84216458327319E-18   6.63139516166089E-15   3.44045554830684E-15   0.00000000000000E+00   0.00000000000000E+00
      0.00000000000000E+00   0.00000000000000E+00  -5.80564071335689E-19  -1.59072613734338E-15  -1.59130670141471E-15
     -1.52480013224253E-15  -1.45555555555556E-01  -1.45555555555555E-01   0.00000000000000E+00   0.00000000000000E+00
     -2.29808936227233E-17  -5.01710756662345E-15  -5.04008846024618E-15  -1.91565541606430E-15
      6.56345679012346E-03
      8.00000000000000E-01   8.00000000000000E-01   0.00000000000000E+00   0.00000000000000E+00   7.19588847115477E-15
      1.24172591968665E-18   7.19713019707446E-15   3.44214676273298E-15   0.00000000000000E+00   0.00000000000000E+00
      0.00000000000000E+00   0.00000000000000E+00  -2.34165638636250E-18  -1.58859322205587E-15  -1.59093487844224E-15
     -1.52479562854451E-15  -3.28172839506173E-01  -3.28172839506173E-01   0.00000000000000E+00   0.00000000000000E+00
     -2.29809505219716E-17  -5.58321436811025E-15  -5.60619531863222E-15  -1.91735113418847E-15
      1.35434951989026E-02
      8.00000000000000E-01   8.00000000000000E-01   0.00000000000000E+00   0.00000000000000E+00   8.16783701393928E-15
     -1.41579043896636E-18   8.16642122350031E-15   3.44536003762886E-15   0.00000000000000E+00   0.00000000000000E+00
      0.00000000000000E+00   0.00000000000000E+00  -3.13326549265955E-18  -1.58520481013936E-15  -1.58833807563202E-15
     -1.52477499149126E-15  -6.77174759945130E-01  -6.77174759945130E-01   0.00000000000000E+00   0.00000000000000E+00
     -2.29810591044571E-17  -6.55510208876382E-15  -6.57808314786828E-15  -1.92058504613760E-15
      2.35434951989026E-02
      8.00000000000000E-01   8.00000000000000E-01   0.00000000000000E+00   0.00000000000000E+00   9.38075656900693E-15
      1.13936493502117E-18   9.38189593394195E-15   3.44988036459233E-15   0.00000000000000E+00   0.00000000000000E+00
      0.00000000000000E+00   0.00000000000000E+00  -1.47935910146079E-18  -1.58173307116818E-15  -1.58321243026964E-15
     -1.52467246536605E-15  -1.17717475994513E+00  -1.17717475994513E+00   0.00000000000000E+00   0.00000000000000E+00
     -2.29812144705217E-17  -7.77570228920178E-15  -7.79868350367230E-15  -1.92520789922629E-15
      3.35434951989026E-02
      8.00000000000000E-01   8.00000000000000E-01   0.00000000000000E+00   0.00000000000000E+00   1.04315578344586E-14
      6.79707702682903E-18   1.04383549114854E-14   3.45415615366093E-15   0.00000000000000E+00   0.00000000000000E+00
      0.00000000000000E+00   0.00000000000000E+00  -4.09709001222880E-18  -1.57992866889337E-15  -1.58402575890560E-15
     -1.52432103281228E-15  -1.67717475994513E+00  -1.67717475994513E+00   0.00000000000000E+00   0.00000000000000E+00
     -2.29813701476587E-17  -8.83134778243215E-15  -8.85432915257981E-15  -1.92983512084866E-15
      4.35434951989026E-02
      8.00000000000000E-01   8.00000000000000E-01   0.00000000000000E+00   0.00000000000000E+00   1.12962335795802E-14
      1.79904934559807E-18   1.12980326289258E-14   3.45787162966538E-15   0.00000000000000E+00   0.00000000000000E+00
      0.00000000000000E+00   0.00000000000000E+00  -2.25564719934289E-19  -1.58030258665238E-15  -1.58052815137231E-15
     -1.52335455133730E-15  -2.17717475994513E+00  -2.17717475994513E+00   0.00000000000000E+00   0.00000000000000E+00
     -2.29815278257494E-17  -9.69452294972777E-15  -9.71750447755352E-15  -1.93451707832808E-15
      5.35434951989026E-02
      8.00000000000000E-01   8.00000000000000E-01   0.00000000000000E+00   0.00000000000000E+00   1.19529717890869E-14
     -1.74864878191361E-18   1.19512231403049E-14   3.46053248245420E-15   0.00000000000000E+00   0.00000000000000E+00
      0.00000000000000E+00   0.00000000000000E+00  -1.69046862167691E-18  -1.58389932688752E-15  -1.58558979550919E-15
     -1.52120935244992E-15  -2.67717475994513E+00  -2.67717475994513E+00   0.00000000000000E+00   0.00000000000000E+00
     -2.29816898440928E-17  -1.03426516549516E-14  -1.03656333447957E-14  -1.93932313000428E-15
      6.35434951989026E-02
      8.00000000000000E-01   8.00000000000000E-01   0.00000000000000E+00   0.00000000000000E+00   1.24834374057414E-14
      4.03540957747671E-18   1.24874728153188E-14   3.46157059313276E-15   0.00000000000000E+00   0.00000000000000E+00
      0.00000000000000E+00   0.00000000000000E+00  -2.09015340080188E-18  -1.59226949149682E-15  -1.59435964489762E-15
     -1.51727389534630E-15  -3.17717475994513E+00  -3.17717475994513E+00   0.00000000000000E+00   0.00000000000000E+00
     -2.29818576767102E-17  -1.08701313127445E-14  -1.08931131704212E-14  -1.94429669778645E-15
      7.35434951989026E-02
      8.00000000000000E-01   8.00000000000000E-01   0.00000000000000E+00   0.00000000000000E+00   1.29142967789551E-14
      9.73289256393887E-18   1.29240296715190E-14   3.46073128339421E-15   0.00000000000000E+00   0.00000000000000E+00
      0.00000000000000E+00   0.00000000000000E+00  -1.44242191284843E-18  -1.60737401894096E-15  -1.60881644085380E-15
     -1.51126353190397E-15  -3.67717475994513E+00  -3.67717475994513E+00   0.00000000000000E+00   0.00000000000000E+00
     -2.29820323496357E-17  -1.12922311983156E-14  -1.13152132306652E-14  -1.94946775149023E-15
      8.35434951989026E-02
      8.00000000000000E-01   8.00000000000000E-01   0.00000000000000E+00   0.00000000000000E+00   1.32530708679428E-14
      1.01707288030171E-18   1.32540879408231E-14   3.45826632523742E-15   0.00000000000000E+00   0.00000000000000E+00
      0.00000000000000E+00   0.00000000000000E+00  -2.28928109377247E-18  -1.63062369375136E-15  -1.63291297484513E-15
     -1.50340699524183E-15  -4.17717475994513E+00  -4.17717475994513E+00   0.00000000000000E+00   0.00000000000000E+00
     -2.29822146592790E-17  -1.15981927513187E-14  -1.16211749659780E-14  -1.95485932999559E-15
      9.35434951989026E-02
      8.00000000000000E-01   8.00000000000000E-01   0.00000000000000E+00   0.00000000000000E+00   1.35151312482101E-14
     -1.26729877012248E-19   1.35150045183331E-14   3.45464083701576E-15   0.00000000000000E+00   0.00000000000000E+00
      0.00000000000000E+00   0.00000000000000E+00  -2.83253092316880E-18  -1.66025304339982E-15  -1.66308557432299E-15
     -1.49415370333520E-15  -4.67717475994513E+00  -4.67717475994513E+00   0.00000000000000E+00   0.00000000000000E+00
     -2.29824051575452E-17  -1.18289365388526E-14  -1.18519189440102E-14  -1.96048713368055E-15
      1.03543495198903E-01
      8.00000000000000E-01   8.00000000000000E-01   0.00000000000000E+00   0.00000000000000E+00   1.37109739532404E-14
      3.00502880888779E-19   1.37112744561213E-14   3.45022533970281E-15   0.00000000000000E+00   0.00000000000000E+00
      0.00000000000000E+00   0.00000000000000E+00  -1.18581303381370E-18  -1.68831804478698E-15  -1.68950385782080E-15
     -1.48386590711192E-15  -5.17717475994513E+00  -5.17717475994513E+00   0.00000000000000E+00   0.00000000000000E+00
     -2.29826041475461E-17  -1.19987879941529E-14  -1.20217705983005E-14  -1.96635943259090E-15
      1.13543495198903E-01
      8.00000000000000E-01   8.00000000000000E-01   0.00000000000000E+00   0.00000000000000E+00   1.38536989048705E-14
     -8.76004907841680E-18   1.38449388557921E-14   3.44524752326120E-15   0.00000000000000E+00   0.00000000000000E+00
      0.00000000000000E+00   0.00000000000000E+00  -1.51540897085614E-18  -1.70670411733463E-15  -1.70821952630549E-15
     -1.47276817179805E-15  -5.67717475994513E+00  -5.67717475994513E+00   0.00000000000000E+00   0.00000000000000E+00
     -2.29828117598930E-17  -1.21137365177267E-14  -1.21367193294866E-14  -1.97247935146316E-15
      1.23543495198903E-01
      8.00000000000000E-01   8.00000000000000E-01   0.00000000000000E+00   0.00000000000000E+00   1.39549285657104E-14
      4.93038761569088E-18   1.39598589533261E-14   3.43984199705130E-15   0.00000000000000E+00   0.00000000000000E+00
      0.00000000000000E+00   0.00000000000000E+00  -3.68525104509858E-19  -1.71522623872413E-15  -1.71559476382864E-15
     -1.46099477368879E-15  -6.17717475994513E+00  -6.17717475994513E+00   0.00000000000000E+00   0.00000000000000E+00
     -2.29830280317509E-17  -1.22212811614657E-14  -1.22442641894974E-14  -1.97884722336252E-15
      1.33543495198903E-01
      8.00000000000000E-01   8.00000000000000E-01   0.00000000000000E+00   0.00000000000000E+00   1.40329350170061E-14
      2.52947673232948E-18   1.40354644937384E-14   3.43409228299789E-15   0.00000000000000E+00   0.00000000000000E+00
      0.00000000000000E+00   0.00000000000000E+00  -1.06984503631986E-18  -1.71738755893936E-15  -1.71845740397568E-15
     -1.44863029097821E-15  -6.67717475994513E+00  -6.67717475994513E+00   0.00000000000000E+00   0.00000000000000E+00
     -2.29832529540180E-17  -1.22940238368087E-14  -1.23170070897627E-14  -1.98546199201968E-15
      1.43543495198903E-01
      8.00000000000000E-01   8.00000000000000E-01   0.00000000000000E+00   0.00000000000000E+00   1.40966083141303E-14
      3.97179691176314E-18   1.41005801110421E-14   3.42805383970866E-15   0.00000000000000E+00   0.00000000000000E+00
      0.00000000000000E+00   0.00000000000000E+00  -3.18084664245774E-18  -1.71581373664062E-15  -1.71899458328308E-15
     -1.43573191464764E-15  -7.17717475994513E+00  -7.17717475994513E+00   0.00000000000000E+00   0.00000000000000E+00
     -2.29834864953387E-17  -1.23586020412637E-14  -1.23815855277590E-14  -1.99232192506104E-15
      1.53543495198903E-01
      8.00000000000000E-01   8.00000000000000E-01   0.00000000000000E+00   0.00000000000000E+00   1.41455552287605E-14
     -1.32576782944452E-18   1.41442294609311E-14   3.42176583520779E-15   0.00000000000000E+00   0.00000000000000E+00
      0.00000000000000E+00   0.00000000000000E+00  -1.39934034768435E-18  -1.71192406441700E-15  -1.71332340476468E-15
     -1.42234086228815E-15  -7.67717475994513E+00  -7.67717475994513E+00   0.00000000000000E+00   0.00000000000000E+00
     -2.29837286141877E-17  -1.24079223275522E-14  -1.24309060561664E-14  -1.99942497291963E-15
      1.63543495198903E-01
      8.00000000000000E-01   8.00000000000000E-01   0.00000000000000E+00   0.00000000000000E+00   1.41883507307802E-14
      6.56122869591168E-18   1.41949119594761E-14   3.41525738827601E-15   0.00000000000000E+00   0.00000000000000E+00
      0.00000000000000E+00   0.00000000000000E+00  -1.65111234021204E-18  -1.70641230417808E-15  -1.70806341651830E-15
     -1.40848843031072E-15  -8.17717475994513E+00  -8.17717475994513E+00   0.00000000000000E+00   0.00000000000000E+00
     -2.29839792652486E-17  -1.24638645636925E-14  -1.24868485429578E-14  -2.00676895796529E-15
      1.73543495198903E-01
      8.00000000000000E-01   8.00000000000000E-01   0.00000000000000E+00   0.00000000000000E+00   1.42266804554913E-14
      1.00758769612450E-18   1.42276880431874E-14   3.40855111656710E-15   0.00000000000000E+00   0.00000000000000E+00
      0.00000000000000E+00   0.00000000000000E+00  -3.90478915805814E-18  -1.69962521720512E-15  -1.70353000636318E-15
     -1.39419943684251E-15  -8.67717475994513E+00  -8.67717475994513E+00   0.00000000000000E+00   0.00000000000000E+00
     -2.29842384029557E-17  -1.25011737984213E-14  -1.25241580368242E-14  -2.01435167972460E-15
      1.83543495198903E-01
      8.00000000000000E-01   8.00000000000000E-01   0.00000000000000E+00   0.00000000000000E+00   1.42550298210105E-14
      1.37381080327812E-17   1.42687679290433E-14   3.40166529174609E-15   0.00000000000000E+00   0.00000000000000E+00
      0.00000000000000E+00   0.00000000000000E+00  -1.35022242642633E-18  -1.69176424475655E-15  -1.69311446718297E-15
     -1.37949431726846E-15  -9.17717475994513E+00  -9.17717475994513E+00   0.00000000000000E+00   0.00000000000000E+00
     -2.29845059835147E-17  -1.25526689558768E-14  -1.25756534618603E-14  -2.02217097447762E-15
      1.93543495198903E-01
      8.00000000000000E-01   8.00000000000000E-01   0.00000000000000E+00   0.00000000000000E+00   1.42833087938724E-14
     -9.68100047636213E-18   1.42736277933961E-14   3.39461520929987E-15   0.00000000000000E+00   0.00000000000000E+00
      0.00000000000000E+00   0.00000000000000E+00  -2.89597810724898E-18  -1.68291677049396E-15  -1.68581274860121E-15
     -1.36439046224274E-15  -9.67717475994513E+00  -9.67717475994513E+00   0.00000000000000E+00   0.00000000000000E+00
     -2.29847819659771E-17  -1.25648302628289E-14  -1.25878150447949E-14  -2.03022474705714E-15
      2.03543495198903E-01
      8.00000000000000E-01   8.00000000000000E-01   0.00000000000000E+00   0.00000000000000E+00   1.43038948843854E-14
     -9.57713829117818E-18   1.42943177460943E-14   3.38741408395547E-15   0.00000000000000E+00   0.00000000000000E+00
      0.00000000000000E+00   0.00000000000000E+00  -6.97693417515865E-20  -1.67307770864984E-15  -1.67314747799159E-15
     -1.34890309926052E-15  -1.01771747599451E+01  -1.01771747599451E+01   0.00000000000000E+00   0.00000000000000E+00
     -2.29850663127199E-17  -1.25981852017899E-14  -1.26211702681027E-14  -2.03851098469496E-15
      2.13543495198903E-01
      8.00000000000000E-01   8.00000000000000E-01   0.00000000000000E+00   0.00000000000000E+00   1.43272111452274E-14
     -1.08567451392195E-17   1.43163544000881E-14   3.38007365112022E-15   0.00000000000000E+00   0.00000000000000E+00
      0.00000000000000E+00   0.00000000000000E+00  -2.51586124744019E-18  -1.66199122739062E-15  -1.66450708863806E-15
     -1.33304589147900E-15  -1.06771747599451E+01  -1.06771747599451E+01   0.00000000000000E+00   0.00000000000000E+00
     -2.29853589895258E-17  -1.26288619524606E-14  -1.26518473114501E-14  -2.04702775964122E-15
      2.23543495198903E-01
      8.00000000000000E-01   8.00000000000000E-01   0.00000000000000E+00   0.00000000000000E+00   1.43460333681347E-14
      1.20008566739232E-17   1.43580342248086E-14   3.37260458870172E-15   0.00000000000000E+00   0.00000000000000E+00
      0.00000000000000E+00   0.00000000000000E+00  -2.27842767616821E-18  -1.64864110125414E-15  -1.65091952893031E-15
     -1.31683136313052E-15  -1.11771747599451E+01  -1.11771747599451E+01   0.00000000000000E+00   0.00000000000000E+00
     -2.29856599654744E-17  -1.26841290359129E-14  -1.27071146958783E-14  -2.05577322557119E-15
      2.33543495198903E-01
      8.00000000000000E-01   8.00000000000000E-01   0.00000000000000E+00   0.00000000000000E+00   1.43632753261712E-14
      3.26228883788468E-19   1.43636015550550E-14   3.36501683301816E-15   0.00000000000000E+00   0.00000000000000E+00
      0.00000000000000E+00   0.00000000000000E+00  -1.76092265368840E-18  -1.62945992140744E-15  -1.63122084406113E-15
     -1.30027122167936E-15  -1.16771747599451E+01  -1.16771747599451E+01   0.00000000000000E+00   0.00000000000000E+00
     -2.29859692127219E-17  -1.27093947417811E-14  -1.27323807109938E-14  -2.06474561133880E-15
      2.43543495198903E-01
      8.00000000000000E-01   8.00000000000000E-01   0.00000000000000E+00   0.00000000000000E+00   1.43802749092965E-14
     -1.04654934368469E-17   1.43698094158597E-14   3.35731983502211E-15   0.00000000000000E+00   0.00000000000000E+00
      0.00000000000000E+00   0.00000000000000E+00  -2.00279073174912E-18  -1.59281279732514E-15  -1.59481558805689E-15
     -1.28337662067695E-15  -1.21771747599451E+01  -1.21771747599451E+01   0.00000000000000E+00   0.00000000000000E+00
     -2.29862867062841E-17  -1.27520075410965E-14  -1.27749938278028E-14  -2.07394321434516E-15
      2.53543495198903E-01
      8.00000000000000E-01   8.00000000000000E-01   0.00000000000000E+00   0.00000000000000E+00   1.43955009754227E-14
      2.00501459556673E-17   1.44155511213783E-14   3.34952278510466E-15   0.00000000000000E+00   0.00000000000000E+00
      0.00000000000000E+00   0.00000000000000E+00  -1.28914185186555E-18  -1.50145371143178E-15  -1.50274285328364E-15
     -1.26615839032390E-15  -1.26771747599451E+01  -1.26771747599451E+01   0.00000000000000E+00   0.00000000000000E+00
     -2.29866124238362E-17  -1.28898216556708E-14  -1.29128082680947E-14  -2.08336439478077E-15
      2.63543495198903E-01
      8.00000000000000E-01   8.00000000000000E-01   0.00000000000000E+00   0.00000000000000E+00   1.44110667198700E-14
     -4.23571448008960E-18   1.44068310053899E-14   3.34163482418050E-15   0.00000000000000E+00   0.00000000000000E+00
      0.00000000000000E+00   0.00000000000000E+00  -1.62788686320841E-18  -1.23814296306803E-15  -1.23977084993124E-15
     -1.24862725285050E-15  -1.31771747599451E+01  -1.31771747599451E+01   0.00000000000000E+00   0.00000000000000E+00
     -2.29869463455658E-17  -1.31440732091131E-14  -1.31670601554587E-14  -2.09300757132999E-15
      2.73543495198903E-01
      8.00000000000000E-01   8.00000000000000E-01   0.00000000000000E+00   0.00000000000000E+00   1.44254209795368E-14
     -7.95142275094928E-18   1.44174695567858E-14   3.33366525338350E-15   0.00000000000000E+00   0.00000000000000E+00
      0.00000000000000E+00   0.00000000000000E+00  -1.44901366771571E-18  -4.42273497990086E-16  -4.43722511657801E-16
     -1.23079403484418E-15  -1.36771747599451E+01  -1.36771747599451E+01   0.00000000000000E+00   0.00000000000000E+00
     -2.29872884540898E-17  -1.39507597566739E-14  -1.39737470451280E-14  -2.10287121853932E-15
      2.83543495198903E-01
      8.00000000000000E-01   8.00000000000000E-01   0.00000000000000E+00   0.00000000000000E+00   1.44412471681780E-14
     -1.73429702265993E-17   1.44239041979514E-14   3.32562375275522E-15   0.00000000000000E+00   0.00000000000000E+00
      0.00000000000000E+00   0.00000000000000E+00  -3.50168407755828E-18   1.96836979932795E-15   1.96486811525040E-15
     -1.21266988687341E-15  -1.41771747599451E+01  -1.41771747599451E+01   0.00000000000000E+00   0.00000000000000E+00
     -2.29876387344233E-17  -1.63657846744674E-14  -1.63887723132018E-14  -2.11295386588181E-15
      2.93543495198903E-01
      8.00000000000000E-01   8.00000000000000E-01   0.00000000000000E+00   0.00000000000000E+00   1.44523406798175E-14
      2.27361440033000E-17   1.44750768238208E-14   3.31752061991361E-15   0.00000000000000E+00   0.00000000000000E+00
      0.00000000000000E+00   0.00000000000000E+00  -1.73664855457636E-18   9.15806093233321E-15   9.15632428377863E-15
     -1.19426652129205E-15  -1.46771747599451E+01  -1.46771747599451E+01   0.00000000000000E+00   0.00000000000000E+00
     -2.29879971740106E-17  -2.36084131104254E-14  -2.36314011075994E-14  -2.12325409862156E-15
      3.03543495198903E-01
      8.00000000000000E-01   8.00000000000000E-01   0.00000000000000E+00   0.00000000000000E+00   1.44623359956049E-14
      1.42829338065542E-17   1.44766189294114E-14   3.30936704301800E-15   0.00000000000000E+00   0.00000000000000E+00
      0.00000000000000E+00   0.00000000000000E+00  -5.63400453884671E-20   3.01260029778877E-14   3.01259466378424E-14
     -1.17559648197943E-15  -1.51771747599451E+01  -1.51771747599451E+01   0.00000000000000E+00   0.00000000000000E+00
     -2.29883637628459E-17  -4.45795772034909E-14  -4.46025655672538E-14  -2.13377056103857E-15
      3.13543495198903E-01
      8.00000000000000E-01   8.00000000000000E-01   0.00000000000000E+00   0.00000000000000E+00   1.44727713562978E-14
     -4.41553626692726E-18   1.44683558200309E-14   3.30117542985392E-15   0.00000000000000E+00  -9.18447372075268E-17
      0.00000000000000E+00   0.00000000000000E+00  -4.47584831869248E-19   8.97249994033213E-14   8.97245518184894E-14
     -1.15667346596622E-15  -1.56771747599451E+01  -1.56771747599451E+01   0.00000000000000E+00   0.00000000000000E+00
     -2.29887384937438E-17  -1.04169918900027E-13  -1.04192907638520E-13  -2.14450196388770E-15
      3.23543495198903E-01
      8.00000000000000E-01   8.00000000000000E-01   0.00000000000000E+00   0.00000000000000E+00   1.44828677337953E-14
     -7.01169174548650E-18   1.44758560420498E-14   3.29295982976142E-15   0.00000000000000E+00  -2.75534211622580E-16
      0.00000000000000E+00   0.00000000000000E+00  -2.94630882537402E-18   2.54481686808003E-13   2.54478740499178E-13
     -1.13751272859888E-15  -1.61771747599451E+01  -1.61771747599451E+01   0.00000000000000E+00   0.00000000000000E+00
     -2.29891213629338E-17  -2.68931607419864E-13  -2.68954596541227E-13  -2.15544710116255E-15
      3.33543495198903E-01
      8.00000000000000E-01   8.00000000000000E-01   0.00000000000000E+00   0.00000000000000E+00   1.44860510201475E-14
     -2.18335628590785E-17   1.44642174572884E-14   3.28473651354182E-15   0.00000000000000E+00  -7.34757897660214E-16
      0.00000000000000E+00   0.00000000000000E+00  -2.58115094843885E-18   6.96669318814110E-13   6.96666737663161E-13
     -1.11813162502387E-15  -1.66771747599451E+01  -1.66771747599451E+01   0.00000000000000E+00   0.00000000000000E+00
     -2.29895123714477E-17  -7.11107965608077E-13  -7.11130955120448E-13  -2.16660488851794E-15
      3.43543495198903E-01
      8.00000000000000E-01   8.00000000000000E-01   0.00000000000000E+00   0.00000000000000E+00   1.44800770085894E-14
     -3.16084163456610E-18   1.44769161669548E-14   3.27652482884520E-15   0.00000000000000E+00  -1.83689474415053E-15
      0.00000000000000E+00   0.00000000000000E+00  -4.50708506889142E-19   1.84691755660449E-12   1.84691710589598E-12
     -1.09855037756046E-15  -1.71771747599451E+01  -1.71771747599451E+01   0.00000000000000E+00   0.00000000000000E+00
     -2.29899115282542E-17  -1.86137103215141E-12  -1.86139402206294E-12  -2.17797445128474E-15
      3.53543495198903E-01
      8.00000000000000E-01   8.00000000000000E-01   0.00000000000000E+00   0.00000000000000E+00   1.44635040900771E-14
      2.83038916400741E-18   1.44663344792411E-14   3.26834854030291E-15   0.00000000000000E+00  -4.77592633479139E-15
      0.00000000000000E+00   0.00000000000000E+00  -2.23169468886199E-18   4.74172741408530E-12   4.74172518239061E-12
     -1.07879321917779E-15  -1.76771747599451E+01  -1.76771747599451E+01   0.00000000000000E+00   0.00000000000000E+00
     -2.29903188572990E-17  -4.75616852655097E-12  -4.75619151686983E-12  -2.18955532112512E-15
      3.63543495198903E-01
      8.00000000000000E-01   8.00000000000000E-01   0.00000000000000E+00   0.00000000000000E+00   1.44180377912723E-14
      8.49882686887048E-19   1.44188876739592E-14   3.26023801132238E-15   0.00000000000000E+00  -1.17561263625634E-14
      0.00000000000000E+00   0.00000000000000E+00  -4.43162644644213E-18   1.17760527400281E-11   1.17760483084017E-11
     -1.05889015388014E-15  -1.81771747599451E+01  -1.81771747599451E+01   0.00000000000000E+00   0.00000000000000E+00
     -2.29907344126268E-17  -1.17904442053412E-11  -1.17904671960756E-11  -2.20134785744224E-15
      3.73543495198903E-01
      8.00000000000000E-01   8.00000000000000E-01   0.00000000000000E+00   0.00000000000000E+00   1.43077426259052E-14
      2.49415191366122E-17   1.43326841450418E-14   3.25223378758190E-15   0.00000000000000E+00  -2.81963343227107E-14
      0.00000000000000E+00   0.00000000000000E+00   1.10186525622464E-19   2.82414916642690E-11   2.82414917744555E-11
     -1.03887968510839E-15  -1.86771747599451E+01  -1.86771747599451E+01   0.00000000000000E+00   0.00000000000000E+00
     -2.29911583091167E-17  -2.82558014674423E-11  -2.82558244586006E-11  -2.21335410247351E-15
      3.83543495198903E-01
      8.00000000000000E-01   8.00000000000000E-01   0.00000000000000E+00   0.00000000000000E+00   1.40972396977237E-14
     -1.01344398294725E-19   1.40971383533254E-14   3.24439233305445E-15   0.00000000000000E+00  -6.53016081545515E-14
      0.00000000000000E+00   0.00000000000000E+00  -2.47399031507706E-18   6.52586122292142E-11   6.52586097552239E-11
     -1.01881293153930E-15  -1.91771747599451E+01  -1.91771747599451E+01   0.00000000000000E+00   0.00000000000000E+00
     -2.29915907809091E-17  -6.52726839019862E-11  -6.52727068935770E-11  -2.22557940151514E-15
      3.93543495198903E-01
      8.00000000000000E-01   8.00000000000000E-01   0.00000000000000E+00   0.00000000000000E+00   1.37111300387443E-14
      1.79192389094193E-18   1.37129219626352E-14   3.23679461003084E-15   0.00000000000000E+00  -1.44930995313477E-13
      0.00000000000000E+00   0.00000000000000E+00  -3.15746539693867E-18   1.44890226085410E-10   1.44890222927945E-10
     -9.98759398153516E-16  -1.96771747599451E+01  -1.96771747599450E+01   0.00000000000000E+00   0.00000000000000E+00
     -2.29920322830634E-17  -1.44903912857875E-10  -1.44903935849907E-10  -2.23803521187733E-15
      4.03543495198903E-01
      8.00000000000000E-01   8.00000000000000E-01   0.00000000000000E+00   0.00000000000000E+00   1.30973909987315E-14
      1.43978011055252E-17   1.31117887998370E-14   3.22955734892145E-15   0.00000000000000E+00  -3.08047248594045E-13
      0.00000000000000E+00   0.00000000000000E+00  -2.63729512956826E-18   3.08022736685678E-10   3.08022734048383E-10
     -9.78813944692449E-16  -2.01771747599451E+01  -2.01771747599448E+01   0.00000000000000E+00   0.00000000000000E+00
     -2.29924836479759E-17  -3.08035822844701E-10  -3.08035845837184E-10  -2.25074340422901E-15
      4.13543495198903E-01
      8.00000000000000E-01   8.00000000000000E-01   0.00000000000000E+00   0.00000000000000E+00   1.22701931350218E-14
      6.71291845386719E-18   1.22769060534756E-14   3.22284446979169E-15   0.00000000000000E+00  -6.24452368273974E-13
      0.00000000000000E+00   0.00000000000000E+00  -8.63049853965516E-19   6.24407931605470E-10   6.24407930742420E-10
     -9.59102780683832E-16  -2.06771747599451E+01  -2.06771747599445E+01   0.00000000000000E+00   0.00000000000000E+00
     -2.29929462842381E-17  -6.24420184655524E-10  -6.24420207648470E-10  -2.26374168910786E-15
      4.23543495198903E-01
      8.00000000000000E-01   8.00000000000000E-01   0.00000000000000E+00   0.00000000000000E+00   1.13298394338633E-14
     -1.42705455303979E-17   1.13155688883329E-14   3.21687214358083E-15   0.00000000000000E+00  -1.20160469688607E-12
      0.00000000000000E+00   0.00000000000000E+00  -2.04676194432160E-18   1.20156513872312E-09   1.20156513667636E-09
     -9.39783821914700E-16  -2.11771747599451E+01  -2.11771747599439E+01   0.00000000000000E+00   0.00000000000000E+00
     -2.29934223522381E-17  -1.20157642925182E-09  -1.20157645224524E-09  -2.27708832166613E-15
      4.33543495198903E-01
      8.00000000000000E-01   8.00000000000000E-01   0.00000000000000E+00   0.00000000000000E+00   1.03888038500163E-14
     -1.19420596292992E-18   1.03876096440533E-14   3.21189807786820E-15   0.00000000000000E+00  -2.18608843501355E-12
      0.00000000000000E+00   0.00000000000000E+00  -2.82930471188709E-18   2.18606464040028E-09   2.18606463757097E-09
     -9.21035542566675E-16  -2.16771747599451E+01  -2.16771747599430E+01   0.00000000000000E+00   0.00000000000000E+00
     -2.29939147884216E-17  -2.18607500218668E-09  -2.18607502518060E-09  -2.29086253530152E-15
      4.43543495198903E-01
      8.00000000000000E-01   8.00000000000000E-01   0.00000000000000E+00   0.00000000000000E+00   9.51801292145610E-15
      3.71802328393446E-17   9.55519315429544E-15   3.20818961663557E-15   0.00000000000000E+00  -3.75084722281818E-12
      0.00000000000000E+00   0.00000000000000E+00  -2.18483584853283E-18   3.75085691792329E-09   3.75085691573845E-09
     -9.03032291570430E-16  -2.21771747599451E+01  -2.21771747599414E+01   0.00000000000000E+00   0.00000000000000E+00
     -2.29944270541078E-17  -3.75086644793717E-09  -3.75086647093160E-09  -2.30515732506514E-15
      4.53543495198903E-01
      8.00000000000000E-01   8.00000000000000E-01   0.00000000000000E+00   0.00000000000000E+00   8.74351359593680E-15
     -6.26778519473024E-18   8.73724581074207E-15   3.20597854250045E-15   0.00000000000000E+00  -6.06937576888499E-12
      0.00000000000000E+00   0.00000000000000E+00   1.44350809060110E-18   6.06936440276437E-09   6.06936440420788E-09
     -8.85913406494287E-16  -2.26771747599451E+01  -2.26771747599391E+01   0.00000000000000E+00   0.00000000000000E+00
     -2.29949626248207E-17  -6.06937311845875E-09  -6.06937314145371E-09  -2.32006513600616E-15
      4.63543495198903E-01
      8.00000000000000E-01   8.00000000000000E-01   0.00000000000000E+00   0.00000000000000E+00   8.08083101316305E-15
     -6.63512313033960E-18   8.07419589003271E-15   3.20542282637802E-15   0.00000000000000E+00  -9.28697244747627E-12