DF-ISE text

Info {
  version   = 1.0
  type      = xyplot
  datasets  = [
    "time"
    "Ntop OuterVoltage" "Ntop InnerVoltage" "Ntop QuasiFermiPotential" "Ntop DisplacementCurrent" "Ntop eCurrent"
    "Ntop hCurrent" "Ntop TotalCurrent" "Ntop Charge" "Ptop OuterVoltage" "Ptop InnerVoltage"
    "Ptop QuasiFermiPotential" "Ptop DisplacementCurrent" "Ptop eCurrent" "Ptop hCurrent" "Ptop TotalCurrent"
    "Ptop Charge" "Pbot OuterVoltage" "Pbot InnerVoltage" "Pbot QuasiFermiPotential" "Pbot DisplacementCurrent"
    "Pbot eCurrent" "Pbot hCurrent" "Pbot TotalCurrent" "Pbot Charge" ]
  functions = [
    Time
    OuterVoltage InnerVoltage QuasiFermiPotential DisplacementCurrent eCurrent
    hCurrent TotalCurrent Charge OuterVoltage InnerVoltage
    QuasiFermiPotential DisplacementCurrent eCurrent hCurrent TotalCurrent
    Charge OuterVoltage InnerVoltage QuasiFermiPotential DisplacementCurrent
    eCurrent hCurrent TotalCurrent Charge ]
}

Data {
      1.00000000000000E-03
      8.00000000000000E-01   8.00000000000000E-01   0.00000000000000E+00   0.00000000000000E+00   6.34073445226091E-15
     -5.86396587477813E-19   6.34014805567343E-15   4.68393684905449E-15   0.00000000000000E+00   0.00000000000000E+00
      0.00000000000000E+00   0.00000000000000E+00  -1.53077991853827E-18  -1.61881624290625E-15  -1.62034702282479E-15
     -2.76916980593377E-15  -5.00000000000000E-02  -5.00000000000000E-02   0.00000000000000E+00   0.00000000000000E+00
     -2.29808638243115E-17  -4.69682016902431E-15  -4.71980103284863E-15  -1.91476704312071E-15
      2.91111111111111E-03
      8.00000000000000E-01   8.00000000000000E-01   0.00000000000000E+00   0.00000000000000E+00   6.65679381547333E-15
      2.22749401527036E-19   6.65701656487486E-15   4.68482356154617E-15   0.00000000000000E+00   0.00000000000000E+00
      0.00000000000000E+00   0.00000000000000E+00  -1.53077991799963E-18  -1.61756171671944E-15  -1.61909249663744E-15
     -2.76916817443466E-15  -1.45555555555556E-01  -1.45555555555555E-01   0.00000000000000E+00   0.00000000000000E+00
     -2.29808936217521E-17  -5.01494317461568E-15  -5.03792406823743E-15  -1.91565538711151E-15
      6.56345679012346E-03
      8.00000000000000E-01   8.00000000000000E-01   0.00000000000000E+00   0.00000000000000E+00   7.22140176423969E-15
      1.25482027500473E-19   7.22152724626719E-15   4.68651419593460E-15   0.00000000000000E+00   0.00000000000000E+00
      0.00000000000000E+00   0.00000000000000E+00  -1.53077991685729E-18  -1.61538697508501E-15  -1.61691775500187E-15
     -2.76916311847739E-15  -3.28172839506173E-01  -3.28172839506173E-01   0.00000000000000E+00   0.00000000000000E+00
     -2.29809505200675E-17  -5.58162854074526E-15  -5.60460949126533E-15  -1.91735107745721E-15
      1.35434951989026E-02
      8.00000000000000E-01   8.00000000000000E-01   0.00000000000000E+00   0.00000000000000E+00   8.19271038508021E-15
     -6.22277937714941E-19   8.19208810714249E-15   4.68972480744168E-15   0.00000000000000E+00   0.00000000000000E+00
      0.00000000000000E+00   0.00000000000000E+00  -1.53077990961506E-18  -1.61189558881243E-15  -1.61342636872205E-15
     -2.76913994430727E-15  -6.77174759945130E-01  -6.77174759945130E-01   0.00000000000000E+00   0.00000000000000E+00
     -2.29810590983100E-17  -6.55568067932215E-15  -6.57866173842046E-15  -1.92058486313440E-15
      2.35434951989026E-02
      8.00000000000000E-01   8.00000000000000E-01   0.00000000000000E+00   0.00000000000000E+00   9.40800286283245E-15
      1.08672295282796E-19   9.40811153512774E-15   4.69423177093663E-15   0.00000000000000E+00   0.00000000000000E+00
      0.00000000000000E+00   0.00000000000000E+00  -1.53077987518603E-18  -1.60831519356362E-15  -1.60984597343880E-15
     -2.76902466806571E-15  -1.17717475994513E+00  -1.17717475994513E+00   0.00000000000000E+00   0.00000000000000E+00
     -2.29812144437432E-17  -7.77528434724519E-15  -7.79826556168893E-15  -1.92520710287092E-15
      3.35434951989026E-02
      8.00000000000000E-01   8.00000000000000E-01   0.00000000000000E+00   0.00000000000000E+00   1.04583672457394E-14
     -4.95687033970548E-19   1.04578715587054E-14   4.69846057648420E-15   0.00000000000000E+00   0.00000000000000E+00
      0.00000000000000E+00   0.00000000000000E+00  -1.53077975675457E-18  -1.60650123886837E-15  -1.60803201862512E-15
     -2.76862822108714E-15  -1.67717475994513E+00  -1.67717475994513E+00   0.00000000000000E+00   0.00000000000000E+00
     -2.29813700545706E-17  -8.82685817002575E-15  -8.84983954008032E-15  -1.92983235539706E-15
      4.35434951989026E-02
      8.00000000000000E-01   8.00000000000000E-01   0.00000000000000E+00   0.00000000000000E+00   1.13314513078647E-14
      4.71877490176629E-20   1.13314984956137E-14   4.70204099772761E-15   0.00000000000000E+00   0.00000000000000E+00
      0.00000000000000E+00   0.00000000000000E+00  -1.53077942925756E-18  -1.60708447864268E-15  -1.60861525807194E-15
     -2.76753146427747E-15  -2.17717475994513E+00  -2.17717475994513E+00   0.00000000000000E+00   0.00000000000000E+00
     -2.29815275715280E-17  -9.69990170997027E-15  -9.72288323754180E-15  -1.93450953345013E-15
      5.35434951989026E-02
      8.00000000000000E-01   8.00000000000000E-01   0.00000000000000E+00   0.00000000000000E+00   1.19941179273423E-14
     -1.42481697749449E-18   1.19926931103648E-14   4.70438539090579E-15   0.00000000000000E+00   0.00000000000000E+00
      0.00000000000000E+00   0.00000000000000E+00  -1.53077870132109E-18  -1.61138547047378E-15  -1.61291624917510E-15
     -2.76507921801528E-15  -2.67717475994513E+00  -2.67717475994513E+00   0.00000000000000E+00   0.00000000000000E+00
     -2.29816892721638E-17  -1.03567951719175E-14  -1.03797768611897E-14  -1.93930617289050E-15
      6.35434951989026E-02
      8.00000000000000E-01   8.00000000000000E-01   0.00000000000000E+00   0.00000000000000E+00   1.25362553282779E-14
     -7.62498255864679E-18   1.25286303457192E-14   4.70482657555174E-15   0.00000000000000E+00   0.00000000000000E+00
      0.00000000000000E+00   0.00000000000000E+00  -1.53077737949807E-18  -1.62127834721188E-15  -1.62280912459138E-15
     -2.76056222841115E-15  -3.17717475994513E+00  -3.17717475994513E+00   0.00000000000000E+00   0.00000000000000E+00
     -2.29818565844980E-17  -1.08828393645434E-14  -1.09058212211279E-14  -1.94426434714060E-15
      7.35434951989026E-02
      8.00000000000000E-01   8.00000000000000E-01   0.00000000000000E+00   0.00000000000000E+00   1.29789780470176E-14
      2.33739965609339E-18   1.29813154466737E-14   4.70310050859333E-15   0.00000000000000E+00   0.00000000000000E+00
      0.00000000000000E+00   0.00000000000000E+00  -1.53077542051398E-18  -1.63923092482182E-15  -1.64076170024234E-15
     -2.75368608494859E-15  -3.67717475994513E+00  -3.67717475994513E+00   0.00000000000000E+00   0.00000000000000E+00
     -2.29820305473685E-17  -1.13175717158840E-14  -1.13405537464314E-14  -1.94941442364473E-15
      8.35434951989026E-02
      8.00000000000000E-01   8.00000000000000E-01   0.00000000000000E+00   0.00000000000000E+00   1.33258063500147E-14
     -6.07103454518143E-18   1.33197353154695E-14   4.69954455680948E-15   0.00000000000000E+00   0.00000000000000E+00
      0.00000000000000E+00   0.00000000000000E+00  -1.53077296654333E-18  -1.66651367642700E-15  -1.66804444939354E-15
     -2.74476351091003E-15  -4.17717475994513E+00  -4.17717475994513E+00   0.00000000000000E+00   0.00000000000000E+00
     -2.29822120108401E-17  -1.16287086540651E-14  -1.16516908660760E-14  -1.95478104589946E-15
      9.35434951989026E-02
      8.00000000000000E-01   8.00000000000000E-01   0.00000000000000E+00   0.00000000000000E+00   1.35917219160651E-14
      6.02970197891779E-19   1.35923248862630E-14   4.69469356544189E-15   0.00000000000000E+00   0.00000000000000E+00
      0.00000000000000E+00   0.00000000000000E+00  -1.53077019631481E-18  -1.69983020335194E-15  -1.70136097354826E-15
     -2.73431272100647E-15  -4.67717475994513E+00  -4.67717475994513E+00   0.00000000000000E+00   0.00000000000000E+00
     -2.29824015578225E-17  -1.18679815111569E-14  -1.18909639127147E-14  -1.96038084443540E-15
      1.03543495198903E-01
      8.00000000000000E-01   8.00000000000000E-01   0.00000000000000E+00   0.00000000000000E+00   1.37876655847668E-14
     -4.49686631992714E-19   1.37872158981348E-14   4.68894002758591E-15   0.00000000000000E+00   0.00000000000000E+00
      0.00000000000000E+00   0.00000000000000E+00  -1.53076722673767E-18  -1.72873796886719E-15  -1.73026873609392E-15
     -2.72271794367902E-15  -5.17717475994513E+00  -5.17717475994513E+00   0.00000000000000E+00   0.00000000000000E+00
     -2.29825994908216E-17  -1.20339645625501E-14  -1.20569471620409E-14  -1.96622208390689E-15
      1.13543495198903E-01
      8.00000000000000E-01   8.00000000000000E-01   0.00000000000000E+00   0.00000000000000E+00   1.39252512733263E-14
      5.14645294197600E-18   1.39303977262683E-14   4.68251236909201E-15   0.00000000000000E+00   0.00000000000000E+00
      0.00000000000000E+00   0.00000000000000E+00  -1.53076411900852E-18  -1.74577400146586E-15  -1.74730476558487E-15
     -2.71020481270680E-15  -5.67717475994513E+00  -5.67717475994513E+00   0.00000000000000E+00   0.00000000000000E+00
     -2.29828059287107E-17  -1.21601101547547E-14  -1.21830929606834E-14  -1.97230755638522E-15
      1.23543495198903E-01
      8.00000000000000E-01   8.00000000000000E-01   0.00000000000000E+00   0.00000000000000E+00   1.40232844117424E-14
     -1.64460925594966E-18   1.40216398024865E-14   4.67554046902526E-15   0.00000000000000E+00   0.00000000000000E+00
      0.00000000000000E+00   0.00000000000000E+00  -1.53076090555508E-18  -1.75272240899310E-15  -1.75425316989866E-15
     -2.69690324679405E-15  -6.17717475994513E+00  -6.17717475994513E+00   0.00000000000000E+00   0.00000000000000E+00
     -2.29830208954821E-17  -1.22444036116923E-14  -1.22673866325878E-14  -1.97863722223121E-15
      1.33543495198903E-01
      8.00000000000000E-01   8.00000000000000E-01   0.00000000000000E+00   0.00000000000000E+00   1.40975895306799E-14
     -8.88003937511245E-18   1.40887094913047E-14   4.66810186965324E-15   0.00000000000000E+00   0.00000000000000E+00
      0.00000000000000E+00   0.00000000000000E+00  -1.53075760497974E-18  -1.75371356114163E-15  -1.75524431874661E-15
     -2.68289220315225E-15  -6.67717475994513E+00  -6.67717475994513E+00   0.00000000000000E+00   0.00000000000000E+00
     -2.29832443692574E-17  -1.23104819281889E-14  -1.23334651725581E-14  -1.98520966650098E-15
      1.43543495198903E-01
      8.00000000000000E-01   8.00000000000000E-01   0.00000000000000E+00   0.00000000000000E+00   1.41572253056595E-14
      1.19103165101132E-18   1.41584163373105E-14   4.66024544608341E-15   0.00000000000000E+00   0.00000000000000E+00
      0.00000000000000E+00   0.00000000000000E+00  -1.53075422939367E-18  -1.75128836864646E-15  -1.75281912287585E-15
     -2.66822263961528E-15  -7.17717475994513E+00  -7.17717475994513E+00   0.00000000000000E+00   0.00000000000000E+00
     -2.29834763061005E-17  -1.23826137381286E-14  -1.24055972144347E-14  -1.99202280646814E-15
      1.53543495198903E-01
      8.00000000000000E-01   8.00000000000000E-01   0.00000000000000E+00   0.00000000000000E+00   1.42067983394167E-14
     -1.79583825346542E-17   1.41888399568820E-14   4.65200301309026E-15   0.00000000000000E+00   0.00000000000000E+00
      0.00000000000000E+00   0.00000000000000E+00  -1.53075078594639E-18  -1.74667420419532E-15  -1.74820495498127E-15
     -2.65292877581063E-15  -7.67717475994513E+00  -7.67717475994513E+00   0.00000000000000E+00   0.00000000000000E+00
     -2.29837166516517E-17  -1.24176512852491E-14  -1.24406350019008E-14  -1.99907423727963E-15
      1.63543495198903E-01
      8.00000000000000E-01   8.00000000000000E-01   0.00000000000000E+00   0.00000000000000E+00   1.42487800280751E-14
      3.41227611720305E-19   1.42491212556869E-14   4.64339518344978E-15   0.00000000000000E+00   0.00000000000000E+00
      0.00000000000000E+00   0.00000000000000E+00  -1.53074728088082E-18  -1.74049067003941E-15  -1.74202141732029E-15
     -2.63703377500121E-15  -8.17717475994513E+00  -8.17717475994513E+00   0.00000000000000E+00   0.00000000000000E+00
     -2.29839653470679E-17  -1.24841158730195E-14  -1.25070998383665E-14  -2.00636140844857E-15
      1.73543495198903E-01
      8.00000000000000E-01   8.00000000000000E-01   0.00000000000000E+00   0.00000000000000E+00   1.42847369030233E-14
      1.34347164492834E-17   1.42981716194726E-14   4.63443436230432E-15   0.00000000000000E+00   0.00000000000000E+00
      0.00000000000000E+00   0.00000000000000E+00  -1.53074371940720E-18  -1.73303116172589E-15  -1.73456190544529E-15
     -2.62055264761787E-15  -8.67717475994513E+00  -8.67717475994513E+00   0.00000000000000E+00   0.00000000000000E+00
     -2.29842223320627E-17  -1.25406254916952E-14  -1.25636097140273E-14  -2.01388171468646E-15
      1.83543495198903E-01
      8.00000000000000E-01   8.00000000000000E-01   0.00000000000000E+00   0.00000000000000E+00   1.43157700935865E-14
      1.33639050106772E-18   1.43171064840875E-14   4.62512610373433E-15   0.00000000000000E+00   0.00000000000000E+00
      0.00000000000000E+00   0.00000000000000E+00  -1.53074010461962E-18  -1.72446093930388E-15  -1.72599167940850E-15
     -2.60349356820333E-15  -9.17717475994513E+00  -9.17717475994513E+00   0.00000000000000E+00   0.00000000000000E+00
     -2.29844875462368E-17  -1.25681303171328E-14  -1.25911148046790E-14  -2.02163253553098E-15
      1.93543495198903E-01
      8.00000000000000E-01   8.00000000000000E-01   0.00000000000000E+00   0.00000000000000E+00   1.43427965960440E-14
      6.26961552163905E-18   1.43490662115656E-14   4.61546935622035E-15   0.00000000000000E+00   0.00000000000000E+00
      0.00000000000000E+00   0.00000000000000E+00  -1.53073643950339E-18  -1.71478249817425E-15  -1.71631323461375E-15
     -2.58585811706504E-15  -9.67717475994513E+00  -9.67717475994513E+00   0.00000000000000E+00   0.00000000000000E+00
     -2.29847609291742E-17  -1.26097682160227E-14  -1.26327529769519E-14  -2.02961123915532E-15
      2.03543495198903E-01
      8.00000000000000E-01   8.00000000000000E-01   0.00000000000000E+00   0.00000000000000E+00   1.43667274481704E-14
     -1.00144791653722E-17   1.43567129690051E-14   4.60545587924326E-15   0.00000000000000E+00   0.00000000000000E+00
      0.00000000000000E+00   0.00000000000000E+00  -1.53073272555716E-18  -1.70384950912751E-15  -1.70538024185306E-15
     -2.56764071859482E-15  -1.01771747599451E+01  -1.01771747599451E+01   0.00000000000000E+00   0.00000000000000E+00
     -2.29850424196680E-17  -1.26283476847323E-14  -1.26513327271520E-14  -2.03781516064844E-15
      2.13543495198903E-01
      8.00000000000000E-01   8.00000000000000E-01   0.00000000000000E+00   0.00000000000000E+00   1.43884436289824E-14
     -9.40532574744439E-19   1.43875030964076E-14   4.59506915100595E-15   0.00000000000000E+00   0.00000000000000E+00
      0.00000000000000E+00   0.00000000000000E+00  -1.53072896572719E-18  -1.69092315580630E-15  -1.69245388477202E-15
     -2.54882758313659E-15  -1.06771747599451E+01  -1.06771747599451E+01   0.00000000000000E+00   0.00000000000000E+00
     -2.29853319545201E-17  -1.26720638796811E-14  -1.26950492116356E-14  -2.04624156786934E-15
      2.23543495198903E-01
      8.00000000000000E-01   8.00000000000000E-01   0.00000000000000E+00   0.00000000000000E+00   1.44085518371222E-14
     -6.53397812945526E-18   1.44020178589928E-14   4.58428352076620E-15   0.00000000000000E+00   0.00000000000000E+00
      0.00000000000000E+00   0.00000000000000E+00  -1.53072515920531E-18  -1.67329313237828E-15  -1.67482385753748E-15
     -2.52939587936082E-15  -1.11771747599451E+01  -1.11771747599451E+01   0.00000000000000E+00   0.00000000000000E+00
     -2.29856294678001E-17  -1.27042083719875E-14  -1.27271940014553E-14  -2.05488764140538E-15
      2.33543495198903E-01
      8.00000000000000E-01   8.00000000000000E-01   0.00000000000000E+00   0.00000000000000E+00   1.44274578033130E-14
      6.65839398291423E-19   1.44281236427113E-14   4.57306560848658E-15   0.00000000000000E+00   0.00000000000000E+00
      0.00000000000000E+00   0.00000000000000E+00  -1.53072130833393E-18  -1.64131341113609E-15  -1.64284413244442E-15
     -2.50931507826632E-15  -1.16771747599451E+01  -1.16771747599451E+01   0.00000000000000E+00   0.00000000000000E+00
     -2.29859348927247E-17  -1.27622935753742E-14  -1.27852795102669E-14  -2.06375053022027E-15
      2.43543495198903E-01
      8.00000000000000E-01   8.00000000000000E-01   0.00000000000000E+00   0.00000000000000E+00   1.44454561722847E-14
     -3.28838286092223E-18   1.44421677894238E-14   4.56138239198783E-15   0.00000000000000E+00   0.00000000000000E+00
      0.00000000000000E+00   0.00000000000000E+00  -1.53071741344234E-18  -1.56192394237528E-15  -1.56345465978872E-15
     -2.48855478427499E-15  -1.21771747599451E+01  -1.21771747599451E+01   0.00000000000000E+00   0.00000000000000E+00
     -2.29862481704644E-17  -1.28557268814646E-14  -1.28787131296351E-14  -2.07282760771281E-15
      2.53543495198903E-01
      8.00000000000000E-01   8.00000000000000E-01   0.00000000000000E+00   0.00000000000000E+00   1.44627051284615E-14
      8.01703126833901E-18   1.44707221597298E-14   4.54922203190271E-15   0.00000000000000E+00   0.00000000000000E+00
      0.00000000000000E+00   0.00000000000000E+00  -1.53071347751281E-18  -1.32296117267092E-15  -1.32449188614844E-15
     -2.46710495350660E-15  -1.26771747599451E+01  -1.26771747599451E+01   0.00000000000000E+00   0.00000000000000E+00
     -2.29865692711621E-17  -1.31232437043102E-14  -1.31462302735814E-14  -2.08211707839612E-15
      2.63543495198903E-01
      8.00000000000000E-01   8.00000000000000E-01   0.00000000000000E+00   0.00000000000000E+00   1.44791656553754E-14
     -3.24641495323414E-17   1.44467015058430E-14   4.53662531593397E-15   0.00000000000000E+00   0.00000000000000E+00
      0.00000000000000E+00   0.00000000000000E+00  -1.53070950545838E-18  -5.53253069993331E-16  -5.54783779498790E-16
     -2.44500649163335E-15  -1.31771747599451E+01  -1.31771747599451E+01   0.00000000000000E+00   0.00000000000000E+00
     -2.29868982234639E-17  -1.38689308281208E-14  -1.38919177263442E-14  -2.09161882430063E-15
      2.73543495198903E-01
      8.00000000000000E-01   8.00000000000000E-01   0.00000000000000E+00   0.00000000000000E+00   1.44945741975080E-14
     -1.13056049263106E-17   1.44832685925817E-14   4.52370210305326E-15   0.00000000000000E+00   0.00000000000000E+00
      0.00000000000000E+00   0.00000000000000E+00  -1.53070550730544E-18   1.94105335297659E-15   1.93952264746929E-15
     -2.42236736752435E-15  -1.36771747599451E+01  -1.36771747599451E+01   0.00000000000000E+00   0.00000000000000E+00
     -2.29872351264447E-17  -1.63998040049245E-14  -1.64227912400509E-14  -2.10133473552889E-15
      2.83543495198903E-01
      8.00000000000000E-01   8.00000000000000E-01   0.00000000000000E+00   0.00000000000000E+00   1.45084930365460E-14
      1.68568690346425E-17   1.45253499055807E-14   4.51060386064297E-15   0.00000000000000E+00   0.00000000000000E+00
      0.00000000000000E+00   0.00000000000000E+00  -1.53070148920589E-18   9.86875106077430E-15   9.86722035928509E-15
     -2.39933607139886E-15  -1.41771747599451E+01  -1.41771747599451E+01   0.00000000000000E+00   0.00000000000000E+00
     -2.29875801181640E-17  -2.43695826847476E-14  -2.43925702648657E-14  -2.11126778924408E-15
      2.93543495198903E-01
      8.00000000000000E-01   8.00000000000000E-01   0.00000000000000E+00   0.00000000000000E+00   1.45203705509970E-14
      3.19861665344032E-17   1.45523567175314E-14   4.49747250851618E-15   0.00000000000000E+00   0.00000000000000E+00
      0.00000000000000E+00   0.00000000000000E+00  -1.53069743962994E-18   3.43354053634359E-14   3.43338746659962E-14
     -2.37605194129937E-15  -1.46771747599451E+01  -1.46771747599451E+01   0.00000000000000E+00   0.00000000000000E+00
     -2.29879333243953E-17  -4.88632434502035E-14  -4.88862313835279E-14  -2.12142056721680E-15
      3.03543495198903E-01
      8.00000000000000E-01   8.00000000000000E-01   0.00000000000000E+00   0.00000000000000E+00   1.45294834722097E-14
      2.33856351851807E-17   1.45528691073949E-14   4.48441145867044E-15   0.00000000000000E+00  -9.18447372075268E-17
      0.00000000000000E+00   0.00000000000000E+00  -1.53069327369459E-18   1.07343940502557E-13   1.07342409809283E-13
     -2.35261696626850E-15  -1.51771747599451E+01  -1.51771747599451E+01   0.00000000000000E+00   0.00000000000000E+00
     -2.29882948319187E-17  -1.21872290621846E-13  -1.21895278916678E-13  -2.13179449240197E-15
      3.13543495198903E-01
      8.00000000000000E-01   8.00000000000000E-01   0.00000000000000E+00   0.00000000000000E+00   1.45346741096151E-14
     -1.88066916534290E-17   1.45158674179617E-14   4.47148696774186E-15   0.00000000000000E+00  -2.75534211622580E-16
      0.00000000000000E+00   0.00000000000000E+00  -1.53068858083893E-18   3.17540337522472E-13   3.17538806833891E-13
     -2.32909703738995E-15  -1.56771747599451E+01  -1.56771747599451E+01   0.00000000000000E+00   0.00000000000000E+00
     -2.29886646917624E-17  -3.32031685587161E-13  -3.32054674251852E-13  -2.14238993035190E-15
      3.23543495198903E-01
      8.00000000000000E-01   8.00000000000000E-01   0.00000000000000E+00   0.00000000000000E+00   1.45337337913707E-14
      3.11747214822291E-18   1.45368512635189E-14   4.45874116871656E-15   0.00000000000000E+00  -9.18447372075267E-16
      0.00000000000000E+00   0.00000000000000E+00  -1.53068230290664E-18   9.00637478512485E-13   9.00635947830182E-13
     -2.30553455609513E-15  -1.61771747599451E+01  -1.61771747599451E+01   0.00000000000000E+00   0.00000000000000E+00
     -2.29890429337285E-17  -9.15149810050763E-13  -9.15172799093697E-13  -2.15320661262144E-15
      3.33543495198903E-01
      8.00000000000000E-01   8.00000000000000E-01   0.00000000000000E+00   0.00000000000000E+00   1.45220191741084E-14
     -1.81021436921875E-17   1.45039170304162E-14   4.44620422594683E-15   0.00000000000000E+00  -2.47980790460322E-15
      0.00000000000000E+00   0.00000000000000E+00  -1.53067044921001E-18   2.45737656838679E-12   2.45737503771634E-12
     -2.28196014980786E-15  -1.66771747599451E+01  -1.66771747599451E+01   0.00000000000000E+00   0.00000000000000E+00
     -2.29894295816370E-17  -2.47185596531718E-12  -2.47187895474676E-12  -2.16424407613897E-15
      3.43543495198903E-01
      8.00000000000000E-01   8.00000000000000E-01   0.00000000000000E+00   0.00000000000000E+00   1.44895109958561E-14
      1.01821332467985E-17   1.44996931291029E-14   4.43390321474783E-15   0.00000000000000E+00  -6.42913160452687E-15
      0.00000000000000E+00   0.00000000000000E+00  -1.53064242739697E-18   6.45233196975827E-12   6.45233043911585E-12
     -2.25840107287918E-15  -1.71771747599451E+01  -1.71771747599451E+01   0.00000000000000E+00   0.00000000000000E+00
     -2.29898246701680E-17  -6.46680714242028E-12  -6.46683013224495E-12  -2.17550214186866E-15
      3.53543495198903E-01
      8.00000000000000E-01   8.00000000000000E-01   0.00000000000000E+00   0.00000000000000E+00   1.44152883987940E-14
     -2.70946864102044E-17   1.43881937123838E-14   4.42186920378346E-15   0.00000000000000E+00  -1.62565184857322E-14
      0.00000000000000E+00   0.00000000000000E+00  -1.53057087801810E-18   1.62918830155687E-11   1.62918814849978E-11
     -2.23488757285688E-15  -1.76771747599451E+01  -1.76771747599451E+01   0.00000000000000E+00   0.00000000000000E+00
     -2.29902282703118E-17  -1.63062466884819E-11  -1.63062696787102E-11  -2.18698163092660E-15
      3.63543495198903E-01
      8.00000000000000E-01   8.00000000000000E-01   0.00000000000000E+00   0.00000000000000E+00   1.42592795549328E-14
     -1.83252949061907E-17   1.42409542600266E-14   4.41014457130548E-15   0.00000000000000E+00  -3.94932369992365E-14
      0.00000000000000E+00   0.00000000000000E+00  -1.53039308177551E-18   3.95056762849752E-11   3.95056747545821E-11
     -2.21145892890291E-15  -1.81771747599451E+01  -1.81771747599451E+01   0.00000000000000E+00   0.00000000000000E+00
     -2.29906405351022E-17  -3.95198927182014E-11  -3.95199157088420E-11  -2.19868564240257E-15
      3.73543495198903E-01
      8.00000000000000E-01   8.00000000000000E-01   0.00000000000000E+00   0.00000000000000E+00   1.39561511901844E-14
     -3.14995352306949E-17   1.39246516549537E-14   4.39879231177898E-15   0.00000000000000E+00  -9.18447372075268E-14
      0.00000000000000E+00   0.00000000000000E+00  -1.52998657267949E-18   9.18230407243095E-11   9.18230391943229E-11
     -2.18817046657561E-15  -1.86771747599451E+01  -1.86771747599451E+01   0.00000000000000E+00   0.00000000000000E+00
     -2.29910617819856E-17  -9.18369408549163E-11  -9.18369638459781E-11  -2.21062184520337E-15
      3.83543495198903E-01
      8.00000000000000E-01   8.00000000000000E-01   0.00000000000000E+00   0.00000000000000E+00   1.34278540392038E-14
     -1.47636354934349E-17   1.34130904037104E-14   4.38790835320057E-15   0.00000000000000E+00  -2.04079006075124E-13
      0.00000000000000E+00   0.00000000000000E+00  -1.52916974940819E-18   2.04037557187476E-10   2.04037555658307E-10
     -2.16510208125168E-15  -1.91771747599451E+01  -1.91771747599449E+01   0.00000000000000E+00   0.00000000000000E+00
     -2.29914926297807E-17  -2.04050945757217E-10  -2.04050968748710E-10  -2.22280627194890E-15
      3.93543495198903E-01
      8.00000000000000E-01   8.00000000000000E-01   0.00000000000000E+00   0.00000000000000E+00   1.26336435384399E-14
      8.83078704431973E-18   1.26424743254842E-14   4.37763596760950E-15   0.00000000000000E+00  -4.31945799086998E-13
      0.00000000000000E+00   0.00000000000000E+00  -1.52778219529594E-18   4.31961818810893E-10   4.31961817283110E-10
     -2.14236721005202E-15  -1.96771747599451E+01  -1.96771747599447E+01   0.00000000000000E+00   0.00000000000000E+00
     -2.29919341961208E-17  -4.31974436765502E-10  -4.31974459757436E-10  -2.23526875755747E-15
      4.03543495198903E-01
      8.00000000000000E-01   8.00000000000000E-01   0.00000000000000E+00   0.00000000000000E+00   1.16276609284064E-14
      1.67156512001062E-17   1.16443765796065E-14   4.36817735233003E-15   0.00000000000000E+00  -8.67657232399505E-13
      0.00000000000000E+00   0.00000000000000E+00  -1.52582144294711E-18   8.67695141770460E-10   8.67695140244639E-10
     -2.12011834823029E-15  -2.01771747599451E+01  -2.01771747599443E+01   0.00000000000000E+00   0.00000000000000E+00
     -2.29923883198963E-17  -8.67706761628828E-10  -8.67706784621217E-10  -2.24805900409974E-15
      4.13543495198903E-01
      8.00000000000000E-01   8.00000000000000E-01   0.00000000000000E+00   0.00000000000000E+00   1.05412504690573E-14
      5.23889939435206E-18   1.05464893684517E-14   4.35979238832060E-15   0.00000000000000E+00  -1.64677613813095E-12
      0.00000000000000E+00   0.00000000000000E+00  -1.52346685785973E-18   1.64673394107081E-09   1.64673393954734E-09
     -2.09854215154508E-15  -2.06771747599451E+01  -2.06771747599435E+01   0.00000000000000E+00   0.00000000000000E+00
     -2.29928577003428E-17  -1.64674446304385E-09  -1.64674448603671E-09  -2.26125023677552E-15
      4.23543495198903E-01
      8.00000000000000E-01   8.00000000000000E-01   0.00000000000000E+00   0.00000000000000E+00   9.49878282946233E-15
     -1.32071369641435E-17   9.48557569249819E-15   4.35277387139412E-15   0.00000000000000E+00  -2.94270538012916E-12
      0.00000000000000E+00   0.00000000000000E+00  -1.52093710541535E-18   2.94274040332646E-09   2.94274040180553E-09
     -2.07783786721816E-15  -2.11771747599451E+01  -2.11771747599422E+01   0.00000000000000E+00   0.00000000000000E+00
     -2.29933457919610E-17  -2.94274986438786E-09  -2.94274988738121E-09  -2.27493600417597E-15
      4.33543495198903E-01
      8.00000000000000E-01   8.00000000000000E-01   0.00000000000000E+00   0.00000000000000E+00   8.57070408810134E-15
      1.44726583244785E-17   8.58517674642582E-15   4.34739929478200E-15   0.00000000000000E+00  -4.94537987493928E-12
      0.00000000000000E+00   0.00000000000000E+00  -1.51837273369682E-18   4.94540988227184E-09   4.94540988075347E-09
     -2.05818151147854E-15  -2.16771747599451E+01  -2.16771747599402E+01   0.00000000000000E+00   0.00000000000000E+00
     -2.29938563676380E-17  -4.94541844293640E-09  -4.94541846593026E-09  -2.28921778330346E-15
      4.43543495198903E-01
      8.00000000000000E-01   8.00000000000000E-01   0.00000000000000E+00   0.00000000000000E+00   7.77788572322810E-15
      1.10765572799495E-17   7.78896228050805E-15   4.34387786659760E-15   0.00000000000000E+00  -7.82801879693471E-12
      0.00000000000000E+00   0.00000000000000E+00  -1.51582632170057E-18   7.82801601427626E-09   7.82801601276043E-09
     -2.03969068132587E-15  -2.21771747599451E+01  -2.21771747599373E+01   0.00000000000000E+00   0.00000000000000E+00
     -2.29943928818283E-17  -7.82802377872821E-09  -7.82802380172261E-09  -2.30418718527174E-15
      4.53543495198903E-01
      8.00000000000000E-01   8.00000000000000E-01   0.00000000000000E+00   0.00000000000000E+00   7.10794263629024E-15
      9.15693971201481E-19   7.10885833026144E-15   4.34231878651059E-15   0.00000000000000E+00  -1.17200313808409E-11
      0.00000000000000E+00   0.00000000000000E+00  -1.51329138883263E-18   1.17200321190698E-08   1.17200321175565E-08
     -2.02240755382460E-15  -2.26771747599451E+01  -2.26771747599334E+01   0.00000000000000E+00   0.00000000000000E+00
     -2.29949579366207E-17  -1.17200392034197E-08  -1.17200392264147E-08  -2.31991123268603E-15
      4.63543495198903E-01
      8.00000000000000E-01   8.00000000000000E-01   0.00000000000000E+00   0.00000000000000E+00   6.53476810419342E-15
     -1.65010007884313E-17   6.51826710340499E-15   4.34273216559954E-15   0.00000000000000E+00  -1.66962710874819E-11