DF-ISE text

Info {
  version   = 1.0
  type      = xyplot
  datasets  = [
    "time"
    "Ntop OuterVoltage" "Ntop InnerVoltage" "Ntop QuasiFermiPotential" "Ntop DisplacementCurrent" "Ntop eCurrent"
    "Ntop hCurrent" "Ntop TotalCurrent" "Ntop Charge" "Ptop OuterVoltage" "Ptop InnerVoltage"
    "Ptop QuasiFermiPotential" "Ptop DisplacementCurrent" "Ptop eCurrent" "Ptop hCurrent" "Ptop TotalCurrent"
    "Ptop Charge" "Pbot OuterVoltage" "Pbot InnerVoltage" "Pbot QuasiFermiPotential" "Pbot DisplacementCurrent"
    "Pbot eCurrent" "Pbot hCurrent" "Pbot TotalCurrent" "Pbot Charge" ]
  functions = [
    Time
    OuterVoltage InnerVoltage QuasiFermiPotential DisplacementCurrent eCurrent
    hCurrent TotalCurrent Charge OuterVoltage InnerVoltage
    QuasiFermiPotential DisplacementCurrent eCurrent hCurrent TotalCurrent
    Charge OuterVoltage InnerVoltage QuasiFermiPotential DisplacementCurrent
    eCurrent hCurrent TotalCurrent Charge ]
}

Data {
      1.00000000000000E-03
      8.00000000000000E-01   8.00000000000000E-01   0.00000000000000E+00   0.00000000000000E+00   1.51386470437478E-14
     -6.46381394960040E-19   1.51380006623529E-14   3.43956864864954E-15   0.00000000000000E+00   0.00000000000000E+00
      0.00000000000000E+00   0.00000000000000E+00  -1.87022796744187E-18  -1.04158043842676E-14  -1.04176746122351E-14
     -1.52480158556847E-15  -5.00000000000000E-02  -5.00000000000000E-02   0.00000000000000E+00   0.00000000000000E+00
     -2.29808638249809E-17  -4.69734518629281E-15  -4.72032605011779E-15  -1.91476706308108E-15
      2.91111111111111E-03
      8.00000000000000E-01   8.00000000000000E-01   0.00000000000000E+00   0.00000000000000E+00   1.54545995451180E-14
      3.81713795861003E-19   1.54549812589138E-14   3.44045554829839E-15   0.00000000000000E+00   0.00000000000000E+00
      0.00000000000000E+00   0.00000000000000E+00  -1.77421801669899E-18  -1.04145757945428E-14  -1.04163500125595E-14
     -1.52480013223411E-15  -1.45555555555556E-01  -1.45555555555555E-01   0.00000000000000E+00   0.00000000000000E+00
     -2.29808936227234E-17  -5.01565035273159E-15  -5.03863124635432E-15  -1.91565541606428E-15
      6.56345679012346E-03
      8.00000000000000E-01   8.00000000000000E-01   0.00000000000000E+00   0.00000000000000E+00   1.60169642594930E-14
      1.43811321387318E-18   1.60184023727069E-14   3.44214676272455E-15   0.00000000000000E+00   0.00000000000000E+00
      0.00000000000000E+00   0.00000000000000E+00   4.35449369473301E-19  -1.04124496366853E-14  -1.04120141873158E-14
     -1.52479562853608E-15  -3.28172839506173E-01  -3.28172839506173E-01   0.00000000000000E+00   0.00000000000000E+00
     -2.29809505219716E-17  -5.58340723486913E-15  -5.60638818539110E-15  -1.91735113418846E-15
      1.35434951989026E-02
      8.00000000000000E-01   8.00000000000000E-01   0.00000000000000E+00   0.00000000000000E+00   1.69899799462179E-14
     -7.85136803530981E-19   1.69891948094144E-14   3.44536003762043E-15   0.00000000000000E+00   0.00000000000000E+00
      0.00000000000000E+00   0.00000000000000E+00  -1.42330368519320E-18  -1.04090561826747E-14  -1.04104794863599E-14
     -1.52477499148284E-15  -6.77174759945130E-01  -6.77174759945130E-01   0.00000000000000E+00   0.00000000000000E+00
     -2.29810591044572E-17  -6.55573426395003E-15  -6.57871532305449E-15  -1.92058504613759E-15
      2.35434951989026E-02
      8.00000000000000E-01   8.00000000000000E-01   0.00000000000000E+00   0.00000000000000E+00   1.82036516620381E-14
      2.36977604011944E-19   1.82038886396421E-14   3.44988036458390E-15   0.00000000000000E+00   0.00000000000000E+00
      0.00000000000000E+00   0.00000000000000E+00  -5.21558093804665E-19  -1.04055836648635E-14  -1.04061052229573E-14
     -1.52467246535763E-15  -1.17717475994513E+00  -1.17717475994513E+00   0.00000000000000E+00   0.00000000000000E+00
     -2.29812144705218E-17  -7.77480220221422E-15  -7.79778341668474E-15  -1.92520789922627E-15
      3.35434951989026E-02
      8.00000000000000E-01   8.00000000000000E-01   0.00000000000000E+00   0.00000000000000E+00   1.92521822396198E-14
      7.80971635270288E-19   1.92529632112551E-14   3.45415615365248E-15   0.00000000000000E+00   0.00000000000000E+00
      0.00000000000000E+00   0.00000000000000E+00  -8.68601302198835E-19  -1.04037765563937E-14  -1.04046451576959E-14
     -1.52432103280385E-15  -1.67717475994513E+00  -1.67717475994513E+00   0.00000000000000E+00   0.00000000000000E+00
     -2.29813701476586E-17  -8.82533668341150E-15  -8.84831805355916E-15  -1.92983512084863E-15
      4.35434951989026E-02
      8.00000000000000E-01   8.00000000000000E-01   0.00000000000000E+00   0.00000000000000E+00   2.01210757318440E-14
      1.28505237304304E-19   2.01212042370813E-14   3.45787162965694E-15   0.00000000000000E+00   0.00000000000000E+00
      0.00000000000000E+00   0.00000000000000E+00  -1.21482357646687E-18  -1.04041565353266E-14  -1.04053713589031E-14
     -1.52335455132887E-15  -2.17717475994513E+00  -2.17717475994513E+00   0.00000000000000E+00   0.00000000000000E+00
     -2.29815278257493E-17  -9.69285135035247E-15  -9.71583287817822E-15  -1.93451707832807E-15
      5.35434951989026E-02
      8.00000000000000E-01   8.00000000000000E-01   0.00000000000000E+00   0.00000000000000E+00   2.07753889400454E-14
     -4.08931754588457E-19   2.07749800082908E-14   3.46053248244579E-15   0.00000000000000E+00   0.00000000000000E+00
      0.00000000000000E+00   0.00000000000000E+00  -2.54727215490072E-19  -1.04077525829775E-14  -1.04080073101930E-14
     -1.52120935244152E-15  -2.67717475994513E+00  -2.67717475994513E+00   0.00000000000000E+00   0.00000000000000E+00
     -2.29816898440926E-17  -1.03439910082538E-14  -1.03669726980979E-14  -1.93932313000427E-15
      6.35434951989026E-02
      8.00000000000000E-01   8.00000000000000E-01   0.00000000000000E+00   0.00000000000000E+00   2.13044050559698E-14
     -4.55665635956554E-18   2.12998483996103E-14   3.46157059312441E-15   0.00000000000000E+00   0.00000000000000E+00
      0.00000000000000E+00   0.00000000000000E+00   7.95086757436310E-19  -1.04161232597756E-14  -1.04153281730182E-14
     -1.51727389533798E-15  -3.17717475994513E+00  -3.17717475994513E+00   0.00000000000000E+00   0.00000000000000E+00
     -2.29818576767099E-17  -1.08615383689154E-14  -1.08845202265921E-14  -1.94429669778642E-15
      7.35434951989026E-02
      8.00000000000000E-01   8.00000000000000E-01   0.00000000000000E+00   0.00000000000000E+00   2.17373547603437E-14
      4.32068209793001E-18   2.17416754424416E-14   3.46073128338597E-15   0.00000000000000E+00   0.00000000000000E+00
      0.00000000000000E+00   0.00000000000000E+00  -6.47516136900360E-19  -1.04312256788983E-14  -1.04318731950352E-14
     -1.51126353189576E-15  -3.67717475994513E+00  -3.67717475994513E+00   0.00000000000000E+00   0.00000000000000E+00
     -2.29820323496357E-17  -1.12868202150567E-14  -1.13098022474063E-14  -1.94946775149021E-15
      8.35434951989026E-02
      8.00000000000000E-01   8.00000000000000E-01   0.00000000000000E+00   0.00000000000000E+00   2.20756122563460E-14
     -1.00732648190465E-17   2.20655389915270E-14   3.45826632522928E-15   0.00000000000000E+00   0.00000000000000E+00
      0.00000000000000E+00   0.00000000000000E+00  -9.77786953886930E-19  -1.04544760780409E-14  -1.04554538649948E-14
     -1.50340699523372E-15  -4.17717475994513E+00  -4.17717475994513E+00   0.00000000000000E+00   0.00000000000000E+00
     -2.29822146592785E-17  -1.15871029118729E-14  -1.16100851265322E-14  -1.95485932999556E-15
      9.35434951989026E-02
      8.00000000000000E-01   8.00000000000000E-01   0.00000000000000E+00   0.00000000000000E+00   2.23360607782179E-14
      1.05234089538284E-18   2.23371131191133E-14   3.45464083700775E-15   0.00000000000000E+00   0.00000000000000E+00
      0.00000000000000E+00   0.00000000000000E+00   9.08155587443319E-20  -1.04841063588490E-14  -1.04840155432903E-14
     -1.49415370332719E-15  -4.67717475994513E+00  -4.67717475994513E+00   0.00000000000000E+00   0.00000000000000E+00
     -2.29824051575453E-17  -1.18301151706655E-14  -1.18530975758231E-14  -1.96048713368055E-15
      1.03543495198903E-01
      8.00000000000000E-01   8.00000000000000E-01   0.00000000000000E+00   0.00000000000000E+00   2.25351528206772E-14
      5.31666228589618E-19   2.25356844869058E-14   3.45022533969488E-15   0.00000000000000E+00   0.00000000000000E+00
      0.00000000000000E+00   0.00000000000000E+00  -1.51181144867514E-18  -1.05121663494983E-14  -1.05136781609470E-14
     -1.48386590710399E-15  -5.17717475994513E+00  -5.17717475994513E+00   0.00000000000000E+00   0.00000000000000E+00
     -2.29826041475461E-17  -1.19990237218113E-14  -1.20220063259588E-14  -1.96635943259090E-15
      1.13543495198903E-01
      8.00000000000000E-01   8.00000000000000E-01   0.00000000000000E+00   0.00000000000000E+00   2.26761060058015E-14
     -9.43480641378454E-18   2.26666711993877E-14   3.44524752325335E-15   0.00000000000000E+00   0.00000000000000E+00
      0.00000000000000E+00   0.00000000000000E+00  -6.96497060689420E-20  -1.05305572530413E-14  -1.05306269027474E-14
     -1.47276817179019E-15  -5.67717475994513E+00  -5.67717475994513E+00   0.00000000000000E+00   0.00000000000000E+00
     -2.29828117598928E-17  -1.21130614848804E-14  -1.21360442966403E-14  -1.97247935146316E-15
      1.23543495198903E-01
      8.00000000000000E-01   8.00000000000000E-01   0.00000000000000E+00   0.00000000000000E+00   2.27797586425190E-14
      3.43632845604024E-18   2.27831949709750E-14   3.43984199704350E-15   0.00000000000000E+00   0.00000000000000E+00
      0.00000000000000E+00   0.00000000000000E+00  -1.34575187322077E-18  -1.05390851060154E-14  -1.05404308578886E-14
     -1.46099477368098E-15  -6.17717475994513E+00  -6.17717475994513E+00   0.00000000000000E+00   0.00000000000000E+00
     -2.29830280317510E-17  -1.22197810850546E-14  -1.22427641130864E-14  -1.97884722336252E-15
      1.33543495198903E-01
      8.00000000000000E-01   8.00000000000000E-01   0.00000000000000E+00   0.00000000000000E+00   2.28575819260883E-14
      1.44305186457509E-19   2.28577262312747E-14   3.43409228299012E-15   0.00000000000000E+00   0.00000000000000E+00
      0.00000000000000E+00   0.00000000000000E+00  -1.86391558943457E-18  -1.05412446315785E-14  -1.05431085471680E-14
     -1.44863029097045E-15  -6.67717475994513E+00  -6.67717475994513E+00   0.00000000000000E+00   0.00000000000000E+00
     -2.29832529540181E-17  -1.22916344311527E-14  -1.23146176841067E-14  -1.98546199201968E-15
      1.43543495198903E-01
      8.00000000000000E-01   8.00000000000000E-01   0.00000000000000E+00   0.00000000000000E+00   2.29174020288304E-14
      9.59750131183278E-18   2.29269995301423E-14   3.42805383970098E-15   0.00000000000000E+00   0.00000000000000E+00
      0.00000000000000E+00   0.00000000000000E+00  -1.21735723229041E-19  -1.05396776993927E-14  -1.05397994351159E-14
     -1.43573191463993E-15  -7.17717475994513E+00  -7.17717475994513E+00   0.00000000000000E+00   0.00000000000000E+00
     -2.29834864953384E-17  -1.23642166085310E-14  -1.23872000950263E-14  -1.99232192506106E-15
      1.53543495198903E-01
      8.00000000000000E-01   8.00000000000000E-01   0.00000000000000E+00   0.00000000000000E+00   2.29681282915353E-14
     -5.21080961858297E-18   2.29629174819167E-14   3.42176583520010E-15   0.00000000000000E+00   0.00000000000000E+00
      0.00000000000000E+00   0.00000000000000E+00  -1.19591858107704E-19  -1.05357813127199E-14  -1.05359009045780E-14
     -1.42234086228048E-15  -7.67717475994513E+00  -7.67717475994513E+00   0.00000000000000E+00   0.00000000000000E+00
     -2.29837286141881E-17  -1.24040328487245E-14  -1.24270165773387E-14  -1.99942497291963E-15
      1.63543495198903E-01
      8.00000000000000E-01   8.00000000000000E-01   0.00000000000000E+00   0.00000000000000E+00   2.30128767326167E-14
      1.05221734704008E-17   2.30233989060870E-14   3.41525738826838E-15   0.00000000000000E+00   0.00000000000000E+00
      0.00000000000000E+00   0.00000000000000E+00  -2.32431875895664E-18  -1.05302615609933E-14  -1.05325858797523E-14
     -1.40848843030308E-15  -8.17717475994513E+00  -8.17717475994513E+00   0.00000000000000E+00   0.00000000000000E+00
     -2.29839792652489E-17  -1.24678290470696E-14  -1.24908130263349E-14  -2.00676895796531E-15
      1.73543495198903E-01
      8.00000000000000E-01   8.00000000000000E-01   0.00000000000000E+00   0.00000000000000E+00   2.30484565668627E-14
      1.28211218447277E-17   2.30612776887074E-14   3.40855111655955E-15   0.00000000000000E+00   0.00000000000000E+00
      0.00000000000000E+00   0.00000000000000E+00  -1.82812249640823E-18  -1.05234730838049E-14  -1.05253012063013E-14
     -1.39419943683491E-15  -8.67717475994513E+00  -8.67717475994513E+00   0.00000000000000E+00   0.00000000000000E+00
     -2.29842384029559E-17  -1.25129922440031E-14  -1.25359764824061E-14  -2.01435167972464E-15
      1.83543495198903E-01
      8.00000000000000E-01   8.00000000000000E-01   0.00000000000000E+00   0.00000000000000E+00   2.30772821897659E-14
      2.46214343960833E-17   2.31019036241620E-14   3.40166529173856E-15   0.00000000000000E+00   0.00000000000000E+00
      0.00000000000000E+00   0.00000000000000E+00   2.50167881720461E-19  -1.05156140731263E-14  -1.05153639052446E-14
     -1.37949431726089E-15  -9.17717475994513E+00  -9.17717475994513E+00   0.00000000000000E+00   0.00000000000000E+00
     -2.29845059835149E-17  -1.25635552129339E-14  -1.25865397189174E-14  -2.02217097447766E-15
      1.93543495198903E-01
      8.00000000000000E-01   8.00000000000000E-01   0.00000000000000E+00   0.00000000000000E+00   2.31055547523223E-14
      4.75798185362750E-18   2.31103127341760E-14   3.39461520929238E-15   0.00000000000000E+00   0.00000000000000E+00
      0.00000000000000E+00   0.00000000000000E+00  -1.28919809381903E-18  -1.05067652379550E-14  -1.05080544360489E-14
     -1.36439046223520E-15  -9.67717475994513E+00  -9.67717475994513E+00   0.00000000000000E+00   0.00000000000000E+00
     -2.29847819659779E-17  -1.25792735161612E-14  -1.26022582981271E-14  -2.03022474705719E-15
      2.03543495198903E-01
      8.00000000000000E-01   8.00000000000000E-01   0.00000000000000E+00   0.00000000000000E+00   2.31276428382749E-14
      4.09106275803069E-18   2.31317339010329E-14   3.38741408394801E-15   0.00000000000000E+00   0.00000000000000E+00
      0.00000000000000E+00   0.00000000000000E+00   3.49929550139226E-20  -1.04969369089495E-14  -1.04969019159945E-14
     -1.34890309925302E-15  -1.01771747599451E+01  -1.01771747599451E+01   0.00000000000000E+00   0.00000000000000E+00
     -2.29850663127203E-17  -1.26118469187257E-14  -1.26348319850384E-14  -2.03851098469501E-15
      2.13543495198903E-01
      8.00000000000000E-01   8.00000000000000E-01   0.00000000000000E+00   0.00000000000000E+00   2.31493964928561E-14
      1.02238646107630E-17   2.31596203574669E-14   3.38007365111282E-15   0.00000000000000E+00   0.00000000000000E+00
      0.00000000000000E+00   0.00000000000000E+00  -8.48516689991406E-19  -1.04858481569939E-14  -1.04866966736839E-14
     -1.33304589147152E-15  -1.06771747599451E+01  -1.06771747599451E+01   0.00000000000000E+00   0.00000000000000E+00
     -2.29853589895267E-17  -1.26499383247935E-14  -1.26729236837830E-14  -2.04702775964129E-15
      2.23543495198903E-01
      8.00000000000000E-01   8.00000000000000E-01   0.00000000000000E+00   0.00000000000000E+00   2.31699681109015E-14
      6.88408888860177E-18   2.31768521997901E-14   3.37260458869427E-15   0.00000000000000E+00   0.00000000000000E+00
      0.00000000000000E+00   0.00000000000000E+00  -2.36050402474001E-18  -1.04724882856531E-14  -1.04748487896778E-14
     -1.31683136312306E-15  -1.11771747599451E+01  -1.11771747599451E+01   0.00000000000000E+00   0.00000000000000E+00
     -2.29856599654740E-17  -1.26790177501468E-14  -1.27020034101123E-14  -2.05577322557120E-15
      2.33543495198903E-01
      8.00000000000000E-01   8.00000000000000E-01   0.00000000000000E+00   0.00000000000000E+00   2.31873544700742E-14
      1.55455391158235E-17   2.32029000091900E-14   3.36501683301079E-15   0.00000000000000E+00   0.00000000000000E+00
      0.00000000000000E+00   0.00000000000000E+00  -1.98742771829872E-18  -1.04533168261658E-14  -1.04553042538841E-14
     -1.30027122167194E-15  -1.16771747599451E+01  -1.16771747599451E+01   0.00000000000000E+00   0.00000000000000E+00
     -2.29859692127228E-17  -1.27246097860932E-14  -1.27475957553059E-14  -2.06474561133885E-15
      2.43543495198903E-01
      8.00000000000000E-01   8.00000000000000E-01   0.00000000000000E+00   0.00000000000000E+00   2.32035949468516E-14
     -4.10688258442414E-19   2.32031842585932E-14   3.35731983501475E-15   0.00000000000000E+00   0.00000000000000E+00
      0.00000000000000E+00   0.00000000000000E+00  -1.47021888203669E-18  -1.04166700250323E-14  -1.04181402439144E-14
     -1.28337662066955E-15  -1.21771747599451E+01  -1.21771747599451E+01   0.00000000000000E+00   0.00000000000000E+00
     -2.29862867062847E-17  -1.27620577279725E-14  -1.27850440146788E-14  -2.07394321434521E-15
      2.53543495198903E-01
      8.00000000000000E-01   8.00000000000000E-01   0.00000000000000E+00   0.00000000000000E+00   2.32187515281874E-14
     -3.88870568052937E-18   2.32148628225068E-14   3.34952278509727E-15   0.00000000000000E+00   0.00000000000000E+00
      0.00000000000000E+00   0.00000000000000E+00  -6.87116538589069E-19  -1.03253046582215E-14  -1.03259917747601E-14
     -1.26615839031652E-15  -1.26771747599451E+01  -1.26771747599451E+01   0.00000000000000E+00   0.00000000000000E+00
     -2.29866124238359E-17  -1.28658844353229E-14  -1.28888710477467E-14  -2.08336439478074E-15
      2.63543495198903E-01
      8.00000000000000E-01   8.00000000000000E-01   0.00000000000000E+00   0.00000000000000E+00   2.32367204430710E-14
      4.12914345965909E-17   2.32780118776676E-14   3.34163482417327E-15   0.00000000000000E+00   0.00000000000000E+00
      0.00000000000000E+00   0.00000000000000E+00  -3.42906524165803E-18  -1.00619947626477E-14  -1.00654238278894E-14
     -1.24862725284315E-15  -1.31771747599451E+01  -1.31771747599451E+01   0.00000000000000E+00   0.00000000000000E+00
     -2.29869463455665E-17  -1.31896011034327E-14  -1.32125880497783E-14  -2.09300757133012E-15
      2.73543495198903E-01
      8.00000000000000E-01   8.00000000000000E-01   0.00000000000000E+00   0.00000000000000E+00   2.32508464100684E-14
     -2.91947019105136E-17   2.32216517081579E-14   3.33366525337614E-15   0.00000000000000E+00   0.00000000000000E+00
      0.00000000000000E+00   0.00000000000000E+00  -3.02193459138304E-18  -9.26612959683236E-15  -9.26915153142375E-15
     -1.23079403483684E-15  -1.36771747599451E+01  -1.36771747599451E+01   0.00000000000000E+00   0.00000000000000E+00
     -2.29872884540895E-17  -1.39295128882801E-14  -1.39525001767342E-14  -2.10287121853930E-15
      2.83543495198903E-01
      8.00000000000000E-01   8.00000000000000E-01   0.00000000000000E+00   0.00000000000000E+00   2.32641371344998E-14
     -2.27781562539213E-17   2.32413589782459E-14   3.32562375274792E-15   0.00000000000000E+00   0.00000000000000E+00
      0.00000000000000E+00   0.00000000000000E+00  -2.53917798964279E-18  -6.85548051706710E-15  -6.85801969505675E-15
     -1.21266988686610E-15  -1.41771747599451E+01  -1.41771747599451E+01   0.00000000000000E+00   0.00000000000000E+00
     -2.29876387344234E-17  -1.63603516444548E-14  -1.63833392831892E-14  -2.11295386588183E-15
      2.93543495198903E-01
      8.00000000000000E-01   8.00000000000000E-01   0.00000000000000E+00   0.00000000000000E+00   2.32756214070786E-14
      1.65875874227908E-17   2.32922089945014E-14   3.31752061990633E-15   0.00000000000000E+00   0.00000000000000E+00
      0.00000000000000E+00   0.00000000000000E+00  -1.16494260333886E-18   3.34206136802156E-16   3.33041194198817E-16
     -1.19426652128475E-15  -1.46771747599451E+01  -1.46771747599451E+01   0.00000000000000E+00   0.00000000000000E+00
     -2.29879971740105E-17  -2.36022621915262E-14  -2.36252501887002E-14  -2.12325409862158E-15
      3.03543495198903E-01
      8.00000000000000E-01   8.00000000000000E-01   0.00000000000000E+00   0.00000000000000E+00   2.32847940411937E-14
     -3.30384285814783E-17   2.32517556126122E-14   3.30936704301065E-15   0.00000000000000E+00   0.00000000000000E+00
      0.00000000000000E+00   0.00000000000000E+00   1.33800637817491E-18   2.13021445877869E-14   2.13034825941651E-14
     -1.17559648197215E-15  -1.51771747599451E+01  -1.51771747599451E+01   0.00000000000000E+00   0.00000000000000E+00
     -2.29883637628450E-17  -4.45322498430145E-14  -4.45552382067773E-14  -2.13377056103849E-15
      3.13543495198903E-01
      8.00000000000000E-01   8.00000000000000E-01   0.00000000000000E+00   0.00000000000000E+00   2.32991211988760E-14
     -1.21289426379270E-17   2.32869922562381E-14   3.30117542984667E-15   0.00000000000000E+00  -9.18447372075268E-17
      0.00000000000000E+00   0.00000000000000E+00  -2.94507858640080E-18   8.09011451863574E-14   8.08982001077710E-14
     -1.15667346595896E-15  -1.56771747599451E+01  -1.56771747599451E+01   0.00000000000000E+00   0.00000000000000E+00
     -2.29887384937425E-17  -1.04162203625515E-13  -1.04185192364009E-13  -2.14450196388772E-15
      3.23543495198903E-01
      8.00000000000000E-01   8.00000000000000E-01   0.00000000000000E+00   0.00000000000000E+00   2.33053175833890E-14
      2.43006633661407E-17   2.33296182467552E-14   3.29295982975429E-15   0.00000000000000E+00  -2.75534211622580E-16
      0.00000000000000E+00   0.00000000000000E+00  -1.54385473075948E-18   2.45657830853063E-13   2.45656286998332E-13
     -1.13751272859163E-15  -1.61771747599451E+01  -1.61771747599451E+01   0.00000000000000E+00   0.00000000000000E+00
     -2.29891213629352E-17  -2.68962916123723E-13  -2.68985905245086E-13  -2.15544710116266E-15
      3.33543495198903E-01
      8.00000000000000E-01   8.00000000000000E-01   0.00000000000000E+00   0.00000000000000E+00   2.33100591730357E-14
     -2.30023301792464E-17   2.32870568428565E-14   3.28473651353463E-15   0.00000000000000E+00  -6.42913160452687E-16
      0.00000000000000E+00   0.00000000000000E+00  -2.73704714550540E-18   6.87845467410172E-13   6.87842730363026E-13
     -1.11813162501664E-15  -1.66771747599451E+01  -1.66771747599451E+01   0.00000000000000E+00   0.00000000000000E+00
     -2.29895123714480E-17  -7.11106797693513E-13  -7.11129787205885E-13  -2.16660488851798E-15
      3.43543495198903E-01
      8.00000000000000E-01   8.00000000000000E-01   0.00000000000000E+00   0.00000000000000E+00   2.33039430426054E-14
      1.07494684433686E-17   2.33146925110488E-14   3.27652482883805E-15   0.00000000000000E+00  -1.83689474415053E-15
      0.00000000000000E+00   0.00000000000000E+00  -4.64534542954072E-19   1.83809370192271E-12   1.83809323738817E-12
     -1.09855037755324E-15  -1.71771747599451E+01  -1.71771747599451E+01   0.00000000000000E+00   0.00000000000000E+00
     -2.29899115282537E-17  -1.86138493998769E-12  -1.86140792989922E-12  -2.17797445128482E-15
      3.53543495198903E-01
      8.00000000000000E-01   8.00000000000000E-01   0.00000000000000E+00   0.00000000000000E+00   2.32872385247082E-14
      3.71533070780034E-19   2.32876100577790E-14   3.26834854029574E-15   0.00000000000000E+00  -4.77592633479139E-15
      0.00000000000000E+00   0.00000000000000E+00  -2.11397154341253E-18   4.73290355637503E-12   4.73290144240349E-12
     -1.07879321917057E-15  -1.76771747599451E+01  -1.76771747599451E+01   0.00000000000000E+00   0.00000000000000E+00
     -2.29903188572988E-17  -4.75616606214238E-12  -4.75618905246124E-12  -2.18955532112516E-15
      3.63543495198903E-01
      8.00000000000000E-01   8.00000000000000E-01   0.00000000000000E+00   0.00000000000000E+00   2.32377303254122E-14
     -1.76704907760218E-17   2.32200598346362E-14   3.26023801131517E-15   0.00000000000000E+00  -1.17561263625634E-14
      0.00000000000000E+00   0.00000000000000E+00  -2.72054222871769E-19   1.17672288823723E-11   1.17672286103181E-11
     -1.05889015387293E-15  -1.81771747599451E+01  -1.81771747599451E+01   0.00000000000000E+00   0.00000000000000E+00
     -2.29907344126263E-17  -1.17904256794183E-11  -1.17904486701528E-11  -2.20134785744224E-15
      3.73543495198903E-01
      8.00000000000000E-01   8.00000000000000E-01   0.00000000000000E+00   0.00000000000000E+00   2.31334623822319E-14
      5.89935934485827E-18   2.31393617415767E-14   3.25223378757471E-15   0.00000000000000E+00  -2.81963343227107E-14
      0.00000000000000E+00   0.00000000000000E+00  -1.75751574079561E-18   2.82326678141373E-11   2.82326660566216E-11
     -1.03887968510119E-15  -1.86771747599451E+01  -1.86771747599451E+01   0.00000000000000E+00   0.00000000000000E+00
     -2.29911583091170E-17  -2.82557824272049E-11  -2.82558054183632E-11  -2.21335410247351E-15
      3.83543495198903E-01
      8.00000000000000E-01   8.00000000000000E-01   0.00000000000000E+00   0.00000000000000E+00   2.29184234263788E-14
     -4.26040393404167E-18   2.29141630224448E-14   3.24439233304730E-15   0.00000000000000E+00  -6.52097634173440E-14
      0.00000000000000E+00   0.00000000000000E+00   1.94282607616217E-19   6.52497883789221E-11   6.52497885732047E-11
     -1.01881293153211E-15  -1.91771747599451E+01  -1.91771747599451E+01   0.00000000000000E+00   0.00000000000000E+00
     -2.29915907809099E-17  -6.52726797446361E-11  -6.52727027362268E-11  -2.22557940151518E-15
      3.93543495198903E-01
      8.00000000000000E-01   8.00000000000000E-01   0.00000000000000E+00   0.00000000000000E+00   2.25318448039234E-14
     -2.53121722999189E-17   2.25065326316235E-14   3.23679461002361E-15   0.00000000000000E+00  -1.44839150576270E-13
      0.00000000000000E+00   0.00000000000000E+00  -2.02779105913210E-20   1.44881402228486E-10   1.44881402208208E-10
     -9.98759398146315E-16  -1.96771747599451E+01  -1.96771747599450E+01   0.00000000000000E+00   0.00000000000000E+00
     -2.29920322830635E-17  -1.44903885748807E-10  -1.44903908740839E-10  -2.23803521187731E-15
      4.03543495198903E-01
      8.00000000000000E-01   8.00000000000000E-01   0.00000000000000E+00   0.00000000000000E+00   2.19202036081478E-14
     -2.01696189810234E-17   2.19000339891668E-14   3.22955734891422E-15   0.00000000000000E+00  -3.08047248594045E-13
      0.00000000000000E+00   0.00000000000000E+00  -1.59798057104817E-18   3.08013912823312E-10   3.08013911225332E-10
     -9.78813944685248E-16  -2.01771747599451E+01  -2.01771747599448E+01   0.00000000000000E+00   0.00000000000000E+00
     -2.29924836479749E-17  -3.08035788266839E-10  -3.08035811259323E-10  -2.25074340422897E-15
      4.13543495198903E-01
      8.00000000000000E-01   8.00000000000000E-01   0.00000000000000E+00   0.00000000000000E+00   2.10950281520815E-14
      9.73951114653112E-18   2.11047676632281E-14   3.22284446978454E-15   0.00000000000000E+00  -6.24360523536767E-13
      0.00000000000000E+00   0.00000000000000E+00  -1.84610088846561E-18   6.24399107747929E-10   6.24399105901828E-10
     -9.59102780676622E-16  -2.06771747599451E+01  -2.06771747599445E+01   0.00000000000000E+00   0.00000000000000E+00
     -2.29929462842377E-17  -6.24420187676541E-10  -6.24420210669487E-10  -2.26374168910792E-15
      4.23543495198903E-01
      8.00000000000000E-01   8.00000000000000E-01   0.00000000000000E+00   0.00000000000000E+00   2.01522266073131E-14
      1.16547266407835E-17   2.01638813339539E-14   3.21687214357373E-15   0.00000000000000E+00  -1.20151285214887E-12
      0.00000000000000E+00   0.00000000000000E+00  -5.81749535590321E-19   1.20155631486481E-09   1.20155631428306E-09
     -9.39783821907485E-16  -2.11771747599451E+01  -2.11771747599439E+01   0.00000000000000E+00   0.00000000000000E+00
     -2.29934223522394E-17  -1.20157645517097E-09  -1.20157647816439E-09  -2.27708832166624E-15
      4.33543495198903E-01
      8.00000000000000E-01   8.00000000000000E-01   0.00000000000000E+00   0.00000000000000E+00   1.92109153996898E-14
     -3.91407805711542E-18   1.92070013216327E-14   3.21189807786101E-15   0.00000000000000E+00  -2.18608843501355E-12
      0.00000000000000E+00   0.00000000000000E+00  -1.08810161206765E-18   2.18605581652441E-09   2.18605581543631E-09
     -9.21035542559450E-16  -2.16771747599451E+01  -2.16771747599430E+01   0.00000000000000E+00   0.00000000000000E+00
     -2.29939147884216E-17  -2.18607499944369E-09  -2.18607502243761E-09  -2.29086253530156E-15
      4.43543495198903E-01
      8.00000000000000E-01   8.00000000000000E-01   0.00000000000000E+00   0.00000000000000E+00   1.83416161560082E-14
     -3.73599856124914E-17   1.83042561703957E-14   3.20818961662818E-15   0.00000000000000E+00  -3.75084722281818E-12
      0.00000000000000E+00   0.00000000000000E+00  -1.93418482874430E-18   3.75084809404629E-09   3.75084809211210E-09
     -9.03032291563194E-16  -2.21771747599451E+01  -2.21771747599414E+01   0.00000000000000E+00   0.00000000000000E+00
     -2.29944270541063E-17  -3.75086637337384E-09  -3.75086639636826E-09  -2.30515732506499E-15
      4.53543495198903E-01
      8.00000000000000E-01   8.00000000000000E-01   0.00000000000000E+00   0.00000000000000E+00   1.75687904846071E-14
      7.23093275660211E-18   1.75760214173637E-14   3.20597854249329E-15   0.00000000000000E+00  -6.06937576888499E-12
      0.00000000000000E+00   0.00000000000000E+00   2.24517532296553E-20   6.06935557887834E-09   6.06935557890080E-09
     -8.85913406487045E-16  -2.26771747599451E+01  -2.26771747599391E+01   0.00000000000000E+00   0.00000000000000E+00
     -2.29949626248216E-17  -6.06937313192728E-09  -6.06937315492224E-09  -2.32006513600624E-15
      4.63543495198903E-01
      8.00000000000000E-01   8.00000000000000E-01   0.00000000000000E+00   0.00000000000000E+00   1.69033908232758E-14
      6.89107298906929E-18   1.69102818962649E-14   3.20542282637087E-15   0.00000000000000E+00  -9.28697244747627E-12