DF-ISE text

Info {
  version   = 1.0
  type      = xyplot
  datasets  = [
    "time"
    "Ntop OuterVoltage" "Ntop InnerVoltage" "Ntop QuasiFermiPotential" "Ntop DisplacementCurrent" "Ntop eCurrent"
    "Ntop hCurrent" "Ntop TotalCurrent" "Ntop Charge" "Ptop OuterVoltage" "Ptop InnerVoltage"
    "Ptop QuasiFermiPotential" "Ptop DisplacementCurrent" "Ptop eCurrent" "Ptop hCurrent" "Ptop TotalCurrent"
    "Ptop Charge" "Pbot OuterVoltage" "Pbot InnerVoltage" "Pbot QuasiFermiPotential" "Pbot DisplacementCurrent"
    "Pbot eCurrent" "Pbot hCurrent" "Pbot TotalCurrent" "Pbot Charge" ]
  functions = [
    Time
    OuterVoltage InnerVoltage QuasiFermiPotential DisplacementCurrent eCurrent
    hCurrent TotalCurrent Charge OuterVoltage InnerVoltage
    QuasiFermiPotential DisplacementCurrent eCurrent hCurrent TotalCurrent
    Charge OuterVoltage InnerVoltage QuasiFermiPotential DisplacementCurrent
    eCurrent hCurrent TotalCurrent Charge ]
}

Data {
      1.00000000000000E-03
      8.00000000000000E-01   8.00000000000000E-01   0.00000000000000E+00   0.00000000000000E+00   6.51183282958231E-15
      2.99967378519326E-19   6.51213279696083E-15   9.80291432058707E-15   0.00000000000000E+00   0.00000000000000E+00
      0.00000000000000E+00   0.00000000000000E+00  -1.49150018426689E-18  -1.79001522360265E-15  -1.79150672378692E-15
     -7.88814727980948E-15  -5.00000000000000E-02  -5.00000000000000E-02   0.00000000000000E+00   0.00000000000000E+00
     -2.29808638242329E-17  -4.69764520934969E-15  -4.72062607317392E-15  -1.91476704077760E-15
      2.91111111111111E-03
      8.00000000000000E-01   8.00000000000000E-01   0.00000000000000E+00   0.00000000000000E+00   6.82789336911507E-15
      8.15893815774347E-19   6.82870926293084E-15   9.80380101068654E-15   0.00000000000000E+00   0.00000000000000E+00
      0.00000000000000E+00   0.00000000000000E+00  -1.49150018339957E-18  -1.78876869343883E-15  -1.79026019362223E-15
     -7.88814562690342E-15  -1.45555555555556E-01  -1.45555555555555E-01   0.00000000000000E+00   0.00000000000000E+00
     -2.29808936216405E-17  -5.01546817568697E-15  -5.03844906930861E-15  -1.91565538378310E-15
      6.56345679012346E-03
      8.00000000000000E-01   8.00000000000000E-01   0.00000000000000E+00   0.00000000000000E+00   7.39250495873744E-15
      1.16086722251457E-18   7.39366582595995E-15   9.80549157644281E-15   0.00000000000000E+00   0.00000000000000E+00
      0.00000000000000E+00   0.00000000000000E+00  -1.49150018182277E-18  -1.78657904354345E-15  -1.78807054372527E-15
     -7.88814050534415E-15  -3.28172839506173E-01  -3.28172839506173E-01   0.00000000000000E+00   0.00000000000000E+00
     -2.29809505198540E-17  -5.58261433171483E-15  -5.60559528223468E-15  -1.91735107109866E-15
      1.35434951989026E-02
      8.00000000000000E-01   8.00000000000000E-01   0.00000000000000E+00   0.00000000000000E+00   8.36383004387076E-15
      1.80931207375812E-18   8.36563935594452E-15   9.80870187577449E-15   0.00000000000000E+00   0.00000000000000E+00
      0.00000000000000E+00   0.00000000000000E+00  -1.49150017520520E-18  -1.78307524318028E-15  -1.78456674335549E-15
     -7.88811703272301E-15  -6.77174759945130E-01  -6.77174759945130E-01   0.00000000000000E+00   0.00000000000000E+00
     -2.29810590976355E-17  -6.55809155349139E-15  -6.58107261258903E-15  -1.92058484305152E-15
      2.35434951989026E-02
      8.00000000000000E-01   8.00000000000000E-01   0.00000000000000E+00   0.00000000000000E+00   9.57920066903263E-15
     -1.04301056454082E-18   9.57815765846809E-15   9.81320727903144E-15   0.00000000000000E+00   0.00000000000000E+00
      0.00000000000000E+00   0.00000000000000E+00  -1.49150013937893E-18  -1.77948278778743E-15  -1.78097428792681E-15
     -7.88800026284909E-15  -1.17717475994513E+00  -1.17717475994513E+00   0.00000000000000E+00   0.00000000000000E+00
     -2.29812144408279E-17  -7.77420215610046E-15  -7.79718337054129E-15  -1.92520701618234E-15
      3.35434951989026E-02
      8.00000000000000E-01   8.00000000000000E-01   0.00000000000000E+00   0.00000000000000E+00   1.06298027702778E-14
      4.04415124762518E-18   1.06338469215254E-14   9.81743059722527E-15   0.00000000000000E+00   0.00000000000000E+00
      0.00000000000000E+00   0.00000000000000E+00  -1.49150002009483E-18  -1.77767282655558E-15  -1.77916432657567E-15
     -7.88759854271682E-15  -1.67717475994513E+00  -1.67717475994513E+00   0.00000000000000E+00   0.00000000000000E+00
     -2.29813700444425E-17  -8.83170122490529E-15  -8.85468259494973E-15  -1.92983205450849E-15
      4.35434951989026E-02
      8.00000000000000E-01   8.00000000000000E-01   0.00000000000000E+00   0.00000000000000E+00   1.15033841045611E-14
      2.16968669845435E-18   1.15055537912596E-14   9.82099518846183E-15   0.00000000000000E+00   0.00000000000000E+00
      0.00000000000000E+00   0.00000000000000E+00  -1.49149968665910E-18  -1.77827527063720E-15  -1.77976677032386E-15
     -7.88648647812676E-15  -2.17717475994513E+00  -2.17717475994513E+00   0.00000000000000E+00   0.00000000000000E+00
     -2.29815275437937E-17  -9.70280549339193E-15  -9.72578702093572E-15  -1.93450871033507E-15
      5.35434951989026E-02
      8.00000000000000E-01   8.00000000000000E-01   0.00000000000000E+00   0.00000000000000E+00   1.21668708043184E-14
      3.37702328885991E-18   1.21702478276073E-14   9.82330216977750E-15   0.00000000000000E+00   0.00000000000000E+00
      0.00000000000000E+00   0.00000000000000E+00  -1.49149894671459E-18  -1.78263625201748E-15  -1.78412775096419E-15
     -7.88399785698578E-15  -2.67717475994513E+00  -2.67717475994513E+00   0.00000000000000E+00   0.00000000000000E+00
     -2.29816892094264E-17  -1.03631383874336E-14  -1.03861200766431E-14  -1.93930431279178E-15
      6.35434951989026E-02
      8.00000000000000E-01   8.00000000000000E-01   0.00000000000000E+00   0.00000000000000E+00   1.27103557867947E-14
      7.59332500833863E-18   1.27179491118031E-14   9.82367163789458E-15   0.00000000000000E+00   0.00000000000000E+00
      0.00000000000000E+00   0.00000000000000E+00  -1.49149760229311E-18  -1.79274287389755E-15  -1.79423437149984E-15
     -7.87941086884695E-15  -3.17717475994513E+00  -3.17717475994513E+00   0.00000000000000E+00   0.00000000000000E+00
     -2.29818564636964E-17  -1.09007328838395E-14  -1.09237147403032E-14  -1.94426076904764E-15
      7.35434951989026E-02
      8.00000000000000E-01   8.00000000000000E-01   0.00000000000000E+00   0.00000000000000E+00   1.31543595001240E-14
     -7.91312521078889E-18   1.31464463749133E-14   9.82183603209762E-15   0.00000000000000E+00   0.00000000000000E+00
      0.00000000000000E+00   0.00000000000000E+00  -1.49149561059074E-18  -1.81101220208050E-15  -1.81250369769109E-15
     -7.87242757500182E-15  -3.67717475994513E+00  -3.67717475994513E+00   0.00000000000000E+00   0.00000000000000E+00
     -2.29820303457244E-17  -1.13109606468765E-14  -1.13339426772222E-14  -1.94940845709579E-15
      8.35434951989026E-02
      8.00000000000000E-01   8.00000000000000E-01   0.00000000000000E+00   0.00000000000000E+00   1.35022329657376E-14
      3.22511486236063E-18   1.35054580806000E-14   9.81813931204580E-15   0.00000000000000E+00   0.00000000000000E+00
      0.00000000000000E+00   0.00000000000000E+00  -1.49149311719557E-18  -1.83878595534291E-15  -1.84027744846010E-15
     -7.86336716574045E-15  -4.17717475994513E+00  -4.17717475994513E+00   0.00000000000000E+00   0.00000000000000E+00
     -2.29822117097596E-17  -1.16421984204301E-14  -1.16651806321399E-14  -1.95477214630534E-15
      9.35434951989026E-02
      8.00000000000000E-01   8.00000000000000E-01   0.00000000000000E+00   0.00000000000000E+00   1.37687149956229E-14
      4.22895437351134E-19   1.37691378910603E-14   9.81312124276710E-15   0.00000000000000E+00   0.00000000000000E+00
      0.00000000000000E+00   0.00000000000000E+00  -1.49149030511826E-18  -1.87252550275960E-15  -1.87401699306472E-15
     -7.85275273213181E-15  -4.67717475994513E+00  -4.67717475994513E+00   0.00000000000000E+00   0.00000000000000E+00
     -2.29824011401158E-17  -1.18721384968554E-14  -1.18951208979956E-14  -1.96036851063531E-15
      1.03543495198903E-01
      8.00000000000000E-01   8.00000000000000E-01   0.00000000000000E+00   0.00000000000000E+00   1.39646050636251E-14
      2.88947362130718E-18   1.39674945372464E-14   9.80717427397241E-15   0.00000000000000E+00   0.00000000000000E+00
      0.00000000000000E+00   0.00000000000000E+00  -1.49148729113425E-18  -1.90155555338475E-15  -1.90304704067588E-15
     -7.84096851842053E-15  -5.17717475994513E+00  -5.17717475994513E+00   0.00000000000000E+00   0.00000000000000E+00
     -2.29825989372268E-17  -1.20414648976333E-14  -1.20644474965705E-14  -1.96620575555192E-15
      1.13543495198903E-01
      8.00000000000000E-01   8.00000000000000E-01   0.00000000000000E+00   0.00000000000000E+00   1.41018545848073E-14
      8.99617336144529E-19   1.41027542021435E-14   9.80052438658145E-15   0.00000000000000E+00   0.00000000000000E+00
      0.00000000000000E+00   0.00000000000000E+00  -1.49148413694280E-18  -1.91852333170615E-15  -1.92001481584309E-15
     -7.82823781401377E-15  -5.67717475994513E+00  -5.67717475994513E+00   0.00000000000000E+00   0.00000000000000E+00
     -2.29828052164767E-17  -1.21597565810839E-14  -1.21827393863004E-14  -1.97228657256768E-15
      1.23543495198903E-01
      8.00000000000000E-01   8.00000000000000E-01   0.00000000000000E+00   0.00000000000000E+00   1.41996507727542E-14
     -1.50336252414779E-18   1.41981474102301E-14   9.79329799679301E-15   0.00000000000000E+00   0.00000000000000E+00
      0.00000000000000E+00   0.00000000000000E+00  -1.49148087515253E-18  -1.92542275910324E-15  -1.92691423997839E-15
     -7.81468719215536E-15  -6.17717475994513E+00  -6.17717475994513E+00   0.00000000000000E+00   0.00000000000000E+00
     -2.29830199977778E-17  -1.22482501502539E-14  -1.22712331702517E-14  -1.97861080463767E-15
      1.33543495198903E-01
      8.00000000000000E-01   8.00000000000000E-01   0.00000000000000E+00   0.00000000000000E+00   1.42738938609149E-14
      4.26915121630928E-18   1.42781630121312E-14   9.78556837292697E-15   0.00000000000000E+00   0.00000000000000E+00
      0.00000000000000E+00   0.00000000000000E+00  -1.49147752379982E-18  -1.92640564374108E-15  -1.92789712126488E-15
     -7.80039147026038E-15  -6.67717475994513E+00  -6.67717475994513E+00   0.00000000000000E+00   0.00000000000000E+00
     -2.29832432545766E-17  -1.23272826476118E-14  -1.23502658908663E-14  -1.98517690266654E-15
      1.43543495198903E-01
      8.00000000000000E-01   8.00000000000000E-01   0.00000000000000E+00   0.00000000000000E+00   1.43336185374827E-14
      1.14058391797586E-17   1.43450243766624E-14   9.77737906237386E-15   0.00000000000000E+00   0.00000000000000E+00
      0.00000000000000E+00   0.00000000000000E+00  -1.49147409384681E-18  -1.92402716322205E-15  -1.92551863731590E-15
     -7.78539643752794E-15  -7.17717475994513E+00  -7.17717475994513E+00   0.00000000000000E+00   0.00000000000000E+00
     -2.29834749373865E-17  -1.23965222644091E-14  -1.24195057393465E-14  -1.99198262484588E-15
      1.53543495198903E-01
      8.00000000000000E-01   8.00000000000000E-01   0.00000000000000E+00   0.00000000000000E+00   1.43834134154149E-14
     -1.15301389979689E-18   1.43822604015151E-14   9.76875498949960E-15   0.00000000000000E+00   0.00000000000000E+00
      0.00000000000000E+00   0.00000000000000E+00  -1.49147059345363E-18  -1.91951839036615E-15  -1.92100986095960E-15
     -7.76972962057383E-15  -7.67717475994513E+00  -7.67717475994513E+00   0.00000000000000E+00   0.00000000000000E+00
     -2.29837149849583E-17  -1.24382668255705E-14  -1.24612505405554E-14  -1.99902536892581E-15
      1.63543495198903E-01
      8.00000000000000E-01   8.00000000000000E-01   0.00000000000000E+00   0.00000000000000E+00   1.44257500282501E-14
     -2.36240137440725E-17   1.44021260145061E-14   9.75970747125938E-15   0.00000000000000E+00   0.00000000000000E+00
      0.00000000000000E+00   0.00000000000000E+00  -1.49146702867930E-18  -1.91345384241567E-15  -1.91494530944435E-15
     -7.75340514352802E-15  -8.17717475994513E+00  -8.17717475994513E+00   0.00000000000000E+00   0.00000000000000E+00
     -2.29839633294904E-17  -1.24641967417322E-14  -1.24871807050617E-14  -2.00630232773136E-15
      1.73543495198903E-01
      8.00000000000000E-01   8.00000000000000E-01   0.00000000000000E+00   0.00000000000000E+00   1.44621925349726E-14
     -7.04313784258446E-19   1.44614882211883E-14   9.75023583294657E-15   0.00000000000000E+00   0.00000000000000E+00
      0.00000000000000E+00   0.00000000000000E+00  -1.49146340274763E-18  -1.90614822367031E-15  -1.90763968707306E-15
     -7.73642528703349E-15  -8.67717475994513E+00  -8.67717475994513E+00   0.00000000000000E+00   0.00000000000000E+00
     -2.29842198984954E-17  -1.25308643142168E-14  -1.25538485341153E-14  -2.01381054591308E-15
      1.83543495198903E-01
      8.00000000000000E-01   8.00000000000000E-01   0.00000000000000E+00   0.00000000000000E+00   1.44938456132348E-14
     -1.55617895128738E-18   1.44922894342835E-14   9.74032651623142E-15   0.00000000000000E+00   0.00000000000000E+00
      0.00000000000000E+00   0.00000000000000E+00  -1.49145971857092E-18  -1.89774381875524E-15  -1.89923527847381E-15
     -7.71877961235152E-15  -9.17717475994513E+00  -9.17717475994513E+00   0.00000000000000E+00   0.00000000000000E+00
     -2.29844846141877E-17  -1.25700696711955E-14  -1.25930541558097E-14  -2.02154690387986E-15
      1.93543495198903E-01
      8.00000000000000E-01   8.00000000000000E-01   0.00000000000000E+00   0.00000000000000E+00   1.45216747367215E-14
     -5.37545506809440E-18   1.45162992816534E-14   9.72994976894147E-15   0.00000000000000E+00   0.00000000000000E+00
      0.00000000000000E+00   0.00000000000000E+00  -1.49145597666371E-18  -1.88825859614239E-15  -1.88975005211905E-15
     -7.70044173494421E-15  -9.67717475994513E+00  -9.67717475994513E+00   0.00000000000000E+00   0.00000000000000E+00
     -2.29847573905511E-17  -1.26035644721438E-14  -1.26265492295344E-14  -2.02950803399728E-15
      2.03543495198903E-01
      8.00000000000000E-01   8.00000000000000E-01   0.00000000000000E+00   0.00000000000000E+00   1.45467046719557E-14
      5.90315841557239E-18   1.45526078303713E-14   9.71905401514595E-15   0.00000000000000E+00   0.00000000000000E+00
      0.00000000000000E+00   0.00000000000000E+00  -1.49145217849561E-18  -1.87752858477913E-15  -1.87902003695763E-15
     -7.68136383779906E-15  -1.01771747599451E+01  -1.01771747599451E+01   0.00000000000000E+00   0.00000000000000E+00
     -2.29850381283205E-17  -1.26506027552854E-14  -1.26735877934137E-14  -2.03769017734693E-15
      2.13543495198903E-01
      8.00000000000000E-01   8.00000000000000E-01   0.00000000000000E+00   0.00000000000000E+00   1.45699154296608E-14
     -6.93591957105382E-18   1.45629795100898E-14   9.70756007186405E-15   0.00000000000000E+00   0.00000000000000E+00
      0.00000000000000E+00   0.00000000000000E+00  -1.49144832083618E-18  -1.86473466693072E-15  -1.86622611525155E-15
     -7.66147102400659E-15  -1.06771747599451E+01  -1.06771747599451E+01   0.00000000000000E+00   0.00000000000000E+00
     -2.29853267101889E-17  -1.26737680681280E-14  -1.26967533948382E-14  -2.04608904785744E-15
      2.23543495198903E-01
      8.00000000000000E-01   8.00000000000000E-01   0.00000000000000E+00   0.00000000000000E+00   1.45920081860564E-14
      1.73897473345595E-18   1.45937471607898E-14   9.69536583890131E-15   0.00000000000000E+00   0.00000000000000E+00
      0.00000000000000E+00   0.00000000000000E+00  -1.49144440163602E-18  -1.84661062329388E-15  -1.84810206769552E-15
     -7.64066584481718E-15  -1.11771747599451E+01  -1.11771747599451E+01   0.00000000000000E+00   0.00000000000000E+00
     -2.29856230062043E-17  -1.27226594700881E-14  -1.27456450930943E-14  -2.05469999408416E-15
      2.33543495198903E-01
      8.00000000000000E-01   8.00000000000000E-01   0.00000000000000E+00   0.00000000000000E+00   1.46134527528848E-14
      6.36700592818984E-18   1.46198197588130E-14   9.68239043760046E-15   0.00000000000000E+00   0.00000000000000E+00
      0.00000000000000E+00   0.00000000000000E+00  -1.49144041994663E-18  -1.81120095082207E-15  -1.81269239124202E-15
     -7.61887122820296E-15  -1.16771747599451E+01  -1.16771747599451E+01   0.00000000000000E+00   0.00000000000000E+00
     -2.29859269153755E-17  -1.27841414406556E-14  -1.28071273675709E-14  -2.06351920939747E-15
      2.43543495198903E-01
      8.00000000000000E-01   8.00000000000000E-01   0.00000000000000E+00   0.00000000000000E+00   1.46343610945264E-14
      8.61135314173497E-18   1.46429724476682E-14   9.66867762336989E-15   0.00000000000000E+00   0.00000000000000E+00
      0.00000000000000E+00   0.00000000000000E+00  -1.49143638467621E-18  -1.71607252628374E-15  -1.71756396266842E-15
     -7.59613119289185E-15  -1.21771747599451E+01  -1.21771747599451E+01   0.00000000000000E+00   0.00000000000000E+00
     -2.29862384590422E-17  -1.29024222465407E-14  -1.29254084849998E-14  -2.07254643047803E-15
      2.53543495198903E-01
      8.00000000000000E-01   8.00000000000000E-01   0.00000000000000E+00   0.00000000000000E+00   1.46543671223564E-14
      8.95656205374923E-18   1.46633236844102E-14   9.65445694054888E-15   0.00000000000000E+00   0.00000000000000E+00
      0.00000000000000E+00   0.00000000000000E+00  -1.49143231267097E-18  -1.41462567425751E-15  -1.41611710657018E-15
     -7.57267056372058E-15  -1.26771747599451E+01  -1.26771747599451E+01   0.00000000000000E+00   0.00000000000000E+00
     -2.29865578315791E-17  -1.32242200200084E-14  -1.32472065778400E-14  -2.08178637682830E-15
      2.63543495198903E-01
      8.00000000000000E-01   8.00000000000000E-01   0.00000000000000E+00   0.00000000000000E+00   1.46728478513513E-14
      2.53599913534097E-17   1.46982078427047E-14   9.64002756006695E-15   0.00000000000000E+00   0.00000000000000E+00
      0.00000000000000E+00   0.00000000000000E+00  -1.49142822488008E-18  -4.17962305968881E-16  -4.19453734193761E-16
     -7.54878201936391E-15  -1.31771747599451E+01  -1.31771747599451E+01   0.00000000000000E+00   0.00000000000000E+00
     -2.29868852905378E-17  -1.42557672232205E-14  -1.42787541085110E-14  -2.09124554070306E-15
      2.73543495198903E-01
      8.00000000000000E-01   8.00000000000000E-01   0.00000000000000E+00   0.00000000000000E+00   1.46891968027297E-14
      6.03163814176913E-19   1.46897999665439E-14   9.62560915278755E-15   0.00000000000000E+00   0.00000000000000E+00
      0.00000000000000E+00   0.00000000000000E+00  -1.49142413387436E-18   2.84425953936355E-15   2.84276811522968E-15
     -7.52468087171394E-15  -1.36771747599451E+01  -1.36771747599451E+01   0.00000000000000E+00   0.00000000000000E+00
     -2.29872210216500E-17  -1.75095808607519E-14  -1.75325680817735E-14  -2.10092828107359E-15
      2.83543495198903E-01
      8.00000000000000E-01   8.00000000000000E-01   0.00000000000000E+00   0.00000000000000E+00   1.47028371451921E-14
     -8.59703074644863E-18   1.46942401144457E-14   9.61131874812649E-15   0.00000000000000E+00   0.00000000000000E+00
      0.00000000000000E+00   0.00000000000000E+00  -1.49142000273779E-18   1.32303661290332E-14   1.32288747090305E-14
     -7.50048247716214E-15  -1.41771747599451E+01  -1.41771747599451E+01   0.00000000000000E+00   0.00000000000000E+00
     -2.29875651190962E-17  -2.79001272583571E-14  -2.79231148234762E-14  -2.11083627096437E-15
      2.93543495198903E-01
      8.00000000000000E-01   8.00000000000000E-01   0.00000000000000E+00   0.00000000000000E+00   1.47131222812025E-14
      1.25147308452419E-17   1.47256370120477E-14   9.59721108256250E-15   0.00000000000000E+00   0.00000000000000E+00
      0.00000000000000E+00   0.00000000000000E+00  -1.49141588109649E-18   4.52059041514784E-14   4.52044127355973E-14
     -7.47624151766762E-15  -1.46771747599451E+01  -1.46771747599451E+01   0.00000000000000E+00   0.00000000000000E+00
     -2.29879176219497E-17  -5.99070618300230E-14  -5.99300497476449E-14  -2.12096956489490E-15
      3.03543495198903E-01
      8.00000000000000E-01   8.00000000000000E-01   0.00000000000000E+00   0.00000000000000E+00   1.47192530285541E-14
     -1.46835042712472E-17   1.47045695242829E-14   9.58331233975501E-15   0.00000000000000E+00  -1.83689474415054E-16
      0.00000000000000E+00   0.00000000000000E+00  -1.49141128294219E-18   1.40183313798409E-13   1.40181822387126E-13
     -7.45198486650985E-15  -1.51771747599451E+01  -1.51771747599451E+01   0.00000000000000E+00   0.00000000000000E+00
     -2.29882785442101E-17  -1.54863403632865E-13  -1.54886391911409E-13  -2.13132747324516E-15
      3.13543495198903E-01
      8.00000000000000E-01   8.00000000000000E-01   0.00000000000000E+00   0.00000000000000E+00   1.47200666324272E-14
     -1.74199526135372E-17   1.47026466798136E-14   9.56963758653488E-15   0.00000000000000E+00  -3.67378948830107E-16
      0.00000000000000E+00   0.00000000000000E+00  -1.49140661533542E-18   4.12035302666781E-13   4.12033811260166E-13
     -7.42772856480174E-15  -1.56771747599451E+01  -1.56771747599451E+01   0.00000000000000E+00   0.00000000000000E+00
     -2.29886478906591E-17  -4.26713469292089E-13  -4.26736457939980E-13  -2.14190902173314E-15
      3.23543495198903E-01
      8.00000000000000E-01   8.00000000000000E-01   0.00000000000000E+00   0.00000000000000E+00   1.47132859150019E-14
      9.71952449138438E-18   1.47230054394932E-14   9.55619899352400E-15   0.00000000000000E+00  -1.19398158369785E-15
      0.00000000000000E+00   0.00000000000000E+00  -1.49139919553513E-18   1.16113435475997E-12   1.16113286336077E-12
     -7.40348578669740E-15  -1.61771747599451E+01  -1.61771747599451E+01   0.00000000000000E+00   0.00000000000000E+00
     -2.29890256657123E-17  -1.17583287977460E-12  -1.17585586880027E-12  -2.15271320682658E-15
      3.33543495198903E-01
      8.00000000000000E-01   8.00000000000000E-01   0.00000000000000E+00   0.00000000000000E+00   1.46936565859617E-14
      3.70122397916705E-17   1.47306688257533E-14   9.54301031711262E-15   0.00000000000000E+00  -3.12272106505591E-15
      0.00000000000000E+00   0.00000000000000E+00  -1.49138404650514E-18   3.14635439639516E-12   3.14635290501111E-12
     -7.37927108293215E-15  -1.66771747599451E+01  -1.66771747599451E+01   0.00000000000000E+00   0.00000000000000E+00
     -2.29894118818149E-17  -3.16106058442499E-12  -3.16108357383687E-12  -2.16373923418048E-15
      3.43543495198903E-01
      8.00000000000000E-01   8.00000000000000E-01   0.00000000000000E+00   0.00000000000000E+00   1.46492245648576E-14
      2.64633008034203E-18   1.46518708949380E-14   9.53009048476118E-15   0.00000000000000E+00  -8.17418161146988E-15
      0.00000000000000E+00   0.00000000000000E+00  -1.49134665028528E-18   8.20020970955094E-12   8.20020821820429E-12
     -7.35510357840333E-15  -1.71771747599451E+01  -1.71771747599451E+01   0.00000000000000E+00   0.00000000000000E+00
     -2.29898065732096E-17  -8.21483709929268E-12  -8.21486008909925E-12  -2.17498690635791E-15
      3.53543495198903E-01
      8.00000000000000E-01   8.00000000000000E-01   0.00000000000000E+00   0.00000000000000E+00   1.45548577422897E-14
      1.27459520233640E-17   1.45676036943130E-14   9.51746791080058E-15   0.00000000000000E+00  -2.05732211344860E-14
      0.00000000000000E+00   0.00000000000000E+00  -1.49125073020758E-18   2.05400837669077E-11   2.05400822756569E-11
     -7.33101053037265E-15  -1.76771747599451E+01  -1.76771747599451E+01   0.00000000000000E+00   0.00000000000000E+00
     -2.29902098229916E-17  -2.05546268891415E-11  -2.05546498793513E-11  -2.18645738042791E-15
      3.63543495198903E-01
      8.00000000000000E-01   8.00000000000000E-01   0.00000000000000E+00   0.00000000000000E+00   1.43635272094000E-14
     -2.73267852622675E-18   1.43607945308738E-14   9.50518681956459E-15   0.00000000000000E+00  -4.94124686176494E-14
      0.00000000000000E+00   0.00000000000000E+00  -1.49101562176398E-18   4.93776479059918E-11   4.93776464149761E-11
     -7.30703218455814E-15  -1.81771747599451E+01  -1.81771747599451E+01   0.00000000000000E+00   0.00000000000000E+00
     -2.29906218156806E-17  -4.93919842188851E-11  -4.93920072095069E-11  -2.19815463500648E-15
      3.73543495198903E-01
      8.00000000000000E-01   8.00000000000000E-01   0.00000000000000E+00   0.00000000000000E+00   1.40026122387454E-14
     -9.20864682332463E-18   1.39934035919221E-14   9.49331669402838E-15   0.00000000000000E+00  -1.13703784662918E-13
      0.00000000000000E+00   0.00000000000000E+00  -1.49049208526101E-18   1.13690178808334E-10   1.13690177317842E-10
     -7.28322857630737E-15  -1.86771747599451E+01  -1.86771747599450E+01   0.00000000000000E+00   0.00000000000000E+00
     -2.29910429324403E-17  -1.13704147730391E-10  -1.13704170721434E-10  -2.21008811772100E-15
      3.83543495198903E-01
      8.00000000000000E-01   8.00000000000000E-01   0.00000000000000E+00   0.00000000000000E+00   1.33950993013549E-14
      1.52144036220933E-18   1.33966207417171E-14   9.48196523724853E-15   0.00000000000000E+00  -2.50001374678888E-13
      0.00000000000000E+00   0.00000000000000E+00  -1.48947934091304E-18   2.50011721333298E-10   2.50011719843819E-10
     -7.25968820956327E-15  -1.91771747599451E+01  -1.91771747599449E+01   0.00000000000000E+00   0.00000000000000E+00
     -2.29914739057754E-17  -2.50025093473088E-10  -2.50025116464562E-10  -2.22227702768526E-15
      3.93543495198903E-01
      8.00000000000000E-01   8.00000000000000E-01   0.00000000000000E+00   0.00000000000000E+00   1.25189255824248E-14
     -2.32903971785945E-18   1.25165965427069E-14   9.47129289802223E-15   0.00000000000000E+00  -5.23239467871280E-13
      0.00000000000000E+00   0.00000000000000E+00  -1.48783568163574E-18   5.23194567316488E-10   5.23194565828653E-10
     -7.23653672625296E-15  -1.96771747599451E+01  -1.96771747599446E+01   0.00000000000000E+00   0.00000000000000E+00
     -2.29919160324025E-17  -5.23207059433281E-10  -5.23207082425197E-10  -2.23475617176931E-15
      4.03543495198903E-01
      8.00000000000000E-01   8.00000000000000E-01   0.00000000000000E+00   0.00000000000000E+00   1.14547260499216E-14
      6.52046888468604E-18   1.14612465188063E-14   9.46152241450929E-15   0.00000000000000E+00  -1.03747815149622E-12
      0.00000000000000E+00   0.00000000000000E+00  -1.48561518444110E-18   1.03748920039106E-09   1.03748919890544E-09
     -7.21394052388168E-15  -2.01771747599451E+01  -2.01771747599441E+01   0.00000000000000E+00   0.00000000000000E+00
     -2.29923713914166E-17  -1.03750063715959E-09  -1.03750066015196E-09  -2.24758189062764E-15
      4.13543495198903E-01
      8.00000000000000E-01   8.00000000000000E-01   0.00000000000000E+00   0.00000000000000E+00   1.03442141647252E-14
     -3.62127120422254E-17   1.03080014526830E-14   9.45293201103300E-15   0.00000000000000E+00  -1.94132221035549E-12
      0.00000000000000E+00   0.00000000000000E+00  -1.48304125934028E-18   1.94135225216929E-09   1.94135225068625E-09
     -7.19209759663566E-15  -2.06771747599451E+01  -2.06771747599432E+01   0.00000000000000E+00   0.00000000000000E+00
     -2.29928429374482E-17  -1.94136253569485E-09  -1.94136255868770E-09  -2.26083441439727E-15
      4.23543495198903E-01
      8.00000000000000E-01   8.00000000000000E-01   0.00000000000000E+00   0.00000000000000E+00   9.30469595431046E-15
     -2.51279659968702E-17   9.27956798831359E-15   9.44582267377176E-15   0.00000000000000E+00  -3.41772636096649E-12
      0.00000000000000E+00   0.00000000000000E+00  -1.48033810372207E-18   3.41772380979285E-09   3.41772380831252E-09
     -7.17121048364568E-15  -2.11771747599451E+01  -2.11771747599417E+01   0.00000000000000E+00   0.00000000000000E+00
     -2.29933343070803E-17  -3.41773306488717E-09  -3.41773308788051E-09  -2.27461219012611E-15
      4.33543495198903E-01
      8.00000000000000E-01   8.00000000000000E-01   0.00000000000000E+00   0.00000000000000E+00   8.39490157409955E-15
      3.60533695903924E-18   8.39850691105859E-15   9.44046440122980E-15   0.00000000000000E+00  -5.65754396724644E-12
      0.00000000000000E+00   0.00000000000000E+00  -1.47763236907427E-18   5.65751947267856E-09   5.65751947120093E-09
     -7.15144726933333E-15  -2.16771747599451E+01  -2.16771747599395E+01   0.00000000000000E+00   0.00000000000000E+00
     -2.29938492965968E-17  -5.65752784671402E-09  -5.65752786970787E-09  -2.28901713189648E-15
      4.43543495198903E-01
      8.00000000000000E-01   8.00000000000000E-01   0.00000000000000E+00   0.00000000000000E+00   7.62362816239806E-15
     -8.17391242362904E-18   7.61545424997443E-15   9.43704486294382E-15   0.00000000000000E+00  -8.82627924564332E-12
      0.00000000000000E+00   0.00000000000000E+00  -1.47495797699465E-18   8.82626253234080E-09   8.82626253086584E-09
     -7.13290845746728E-15  -2.21771747599451E+01  -2.21771747599363E+01   0.00000000000000E+00   0.00000000000000E+00
     -2.29943912084817E-17  -8.82627012332564E-09  -8.82627014632003E-09  -2.30413640547653E-15
      4.53543495198903E-01
      8.00000000000000E-01   8.00000000000000E-01   0.00000000000000E+00   0.00000000000000E+00   6.97035313398417E-15
      8.20136574960807E-18   6.97855449973378E-15   9.43564551009658E-15   0.00000000000000E+00  -1.30400239439874E-11
      0.00000000000000E+00   0.00000000000000E+00  -1.47229403162045E-18   1.30399883329116E-08   1.30399883314393E-08
     -7.11561594618742E-15  -2.26771747599451E+01  -2.26771747599321E+01   0.00000000000000E+00   0.00000000000000E+00
     -2.29949623827671E-17  -1.30399952869987E-08  -1.30399953099937E-08  -2.32002956390916E-15
      4.63543495198903E-01
      8.00000000000000E-01   8.00000000000000E-01   0.00000000000000E+00   0.00000000000000E+00   6.40781878984234E-15
     -2.26689652509527E-17   6.38514982459139E-15   9.43625075724052E-15   0.00000000000000E+00  -1.83592118993614E-11