DF-ISE text

Info {
  version   = 1.0
  type      = xyplot
  datasets  = [
    "time"
    "Ntop OuterVoltage" "Ntop InnerVoltage" "Ntop QuasiFermiPotential" "Ntop DisplacementCurrent" "Ntop eCurrent"
    "Ntop hCurrent" "Ntop TotalCurrent" "Ntop Charge" "Ptop OuterVoltage" "Ptop InnerVoltage"
    "Ptop QuasiFermiPotential" "Ptop DisplacementCurrent" "Ptop eCurrent" "Ptop hCurrent" "Ptop TotalCurrent"
    "Ptop Charge" "Pbot OuterVoltage" "Pbot InnerVoltage" "Pbot QuasiFermiPotential" "Pbot DisplacementCurrent"
    "Pbot eCurrent" "Pbot hCurrent" "Pbot TotalCurrent" "Pbot Charge" ]
  functions = [
    Time
    OuterVoltage InnerVoltage QuasiFermiPotential DisplacementCurrent eCurrent
    hCurrent TotalCurrent Charge OuterVoltage InnerVoltage
    QuasiFermiPotential DisplacementCurrent eCurrent hCurrent TotalCurrent
    Charge OuterVoltage InnerVoltage QuasiFermiPotential DisplacementCurrent
    eCurrent hCurrent TotalCurrent Charge ]
}

Data {
      1.00000000000000E-03
      8.00000000000000E-01   8.00000000000000E-01   0.00000000000000E+00   0.00000000000000E+00   1.49150192727478E-14
     -1.85001528458796E-20   1.49150007725949E-14   4.25718242847805E-15   0.00000000000000E+00   0.00000000000000E+00
      0.00000000000000E+00   0.00000000000000E+00  -9.90155416181940E-19  -1.01933738478113E-14  -1.01943640032275E-14
     -2.34241537554024E-15  -5.00000000000000E-02  -5.00000000000000E-02   0.00000000000000E+00   0.00000000000000E+00
     -2.29808638246407E-17  -4.69765590554283E-15  -4.72063676936747E-15  -1.91476705293781E-15
      2.91111111111111E-03
      8.00000000000000E-01   8.00000000000000E-01   0.00000000000000E+00   0.00000000000000E+00   1.52310733122772E-14
     -3.00224218173536E-19   1.52307730880591E-14   4.25806923507426E-15   0.00000000000000E+00   0.00000000000000E+00
      0.00000000000000E+00   0.00000000000000E+00  -9.90155415153624E-19  -1.01921267454327E-14  -1.01931169008478E-14
     -2.34241383373350E-15  -1.45555555555556E-01  -1.45555555555555E-01   0.00000000000000E+00   0.00000000000000E+00
     -2.29808936222295E-17  -5.01467529358904E-15  -5.03765618721127E-15  -1.91565540134077E-15
      6.56345679012346E-03
      8.00000000000000E-01   8.00000000000000E-01   0.00000000000000E+00   0.00000000000000E+00   1.57956647936595E-14
      1.43444203932600E-18   1.57970992356988E-14   4.25976016100552E-15   0.00000000000000E+00   0.00000000000000E+00
      0.00000000000000E+00   0.00000000000000E+00  -9.90155414241001E-19  -1.01899566225528E-14  -1.01909467779671E-14
     -2.34240905569105E-15  -3.28172839506173E-01  -3.28172839506173E-01   0.00000000000000E+00   0.00000000000000E+00
     -2.29809505210025E-17  -5.58317150721077E-15  -5.60615245773177E-15  -1.91735110531447E-15
      1.35434951989026E-02
      8.00000000000000E-01   8.00000000000000E-01   0.00000000000000E+00   0.00000000000000E+00   1.67668989893329E-14
      1.92469473180065E-19   1.67670914588060E-14   4.26297211087568E-15   0.00000000000000E+00   0.00000000000000E+00
      0.00000000000000E+00   0.00000000000000E+00  -9.90155406710204E-19  -1.01865395006644E-14  -1.01875296560711E-14
     -2.34238715793619E-15  -6.77174759945130E-01  -6.77174759945130E-01   0.00000000000000E+00   0.00000000000000E+00
     -2.29810591013266E-17  -6.55658074363361E-15  -6.57956180273493E-15  -1.92058495293949E-15
      2.35434951989026E-02
      8.00000000000000E-01   8.00000000000000E-01   0.00000000000000E+00   0.00000000000000E+00   1.79818384775932E-14
      1.03478930108194E-18   1.79828732668942E-14   4.26748579076317E-15   0.00000000000000E+00   0.00000000000000E+00
      0.00000000000000E+00   0.00000000000000E+00  -9.90155370058185E-19  -1.01829532066901E-14  -1.01839433620602E-14
     -2.34227829706449E-15  -1.17717475994513E+00  -1.17717475994513E+00   0.00000000000000E+00   0.00000000000000E+00
     -2.29812144568853E-17  -7.77594869037717E-15  -7.79892990483406E-15  -1.92520749369868E-15
      3.35434951989026E-02
      8.00000000000000E-01   8.00000000000000E-01   0.00000000000000E+00   0.00000000000000E+00   1.90311306363442E-14
     -4.55871131562483E-18   1.90265719250286E-14   4.27173823131935E-15   0.00000000000000E+00   0.00000000000000E+00
      0.00000000000000E+00   0.00000000000000E+00  -9.90155243276645E-19  -1.01811531546082E-14  -1.01821433098515E-14
     -2.34190451760840E-15  -1.67717475994513E+00  -1.67717475994513E+00   0.00000000000000E+00   0.00000000000000E+00
     -2.29813701002927E-17  -8.82144724507686E-15  -8.84442861517715E-15  -1.92983371371095E-15
      4.35434951989026E-02
      8.00000000000000E-01   8.00000000000000E-01   0.00000000000000E+00   0.00000000000000E+00   1.99019779814174E-14
      2.65931427505278E-18   1.99046372956924E-14   4.27538673394159E-15   0.00000000000000E+00   0.00000000000000E+00
      0.00000000000000E+00   0.00000000000000E+00  -9.90154894293090E-19  -1.01817281769960E-14  -1.01827183318903E-14
     -2.34087348854626E-15  -2.17717475994513E+00  -2.17717475994513E+00   0.00000000000000E+00   0.00000000000000E+00
     -2.29815276966004E-17  -9.69893743610557E-15  -9.72191896380217E-15  -1.93451324539534E-15
      5.35434951989026E-02
      8.00000000000000E-01   8.00000000000000E-01   0.00000000000000E+00   0.00000000000000E+00   2.05609792975412E-14
     -9.83150471415451E-19   2.05599961470698E-14   4.27789125981683E-15   0.00000000000000E+00   0.00000000000000E+00
      0.00000000000000E+00   0.00000000000000E+00  -9.90154122000046E-19  -1.01856044355714E-14  -1.01865945896934E-14
     -2.33857672288448E-15  -2.67717475994513E+00  -2.67717475994513E+00   0.00000000000000E+00   0.00000000000000E+00
     -2.29816895542657E-17  -1.03504198678221E-14  -1.03734015573764E-14  -1.93931453693235E-15
      6.35434951989026E-02
      8.00000000000000E-01   8.00000000000000E-01   0.00000000000000E+00   0.00000000000000E+00   2.10971217003698E-14
      7.06891796628598E-19   2.10978285921664E-14   4.27863617540541E-15   0.00000000000000E+00   0.00000000000000E+00
      0.00000000000000E+00   0.00000000000000E+00  -9.90152718551662E-19  -1.01947352951218E-14  -1.01957254478404E-14
     -2.33435582030818E-15  -3.17717475994513E+00  -3.17717475994513E+00   0.00000000000000E+00   0.00000000000000E+00
     -2.29818571249526E-17  -1.08791212872010E-14  -1.09021031443260E-14  -1.94428035509722E-15
      7.35434951989026E-02
      8.00000000000000E-01   8.00000000000000E-01   0.00000000000000E+00   0.00000000000000E+00   2.15342410380445E-14
     -9.60070063109899E-18   2.15246403374134E-14   4.27736499067862E-15   0.00000000000000E+00   0.00000000000000E+00
      0.00000000000000E+00   0.00000000000000E+00  -9.90150631471246E-19  -1.02112550202666E-14  -1.02122451708981E-14
     -2.32792408083244E-15  -3.67717475994513E+00  -3.67717475994513E+00   0.00000000000000E+00   0.00000000000000E+00
     -2.29820314424931E-17  -1.12894131350728E-14  -1.13123951665153E-14  -1.94944090984618E-15
      8.35434951989026E-02
      8.00000000000000E-01   8.00000000000000E-01   0.00000000000000E+00   0.00000000000000E+00   2.18766147262650E-14
      5.04036239259517E-18   2.18816550886576E-14   4.27437588892344E-15   0.00000000000000E+00   0.00000000000000E+00
      0.00000000000000E+00   0.00000000000000E+00  -9.90147996813694E-19  -1.02365495311351E-14  -1.02375396791319E-14
     -2.31955577600804E-15  -4.17717475994513E+00  -4.17717475994513E+00   0.00000000000000E+00   0.00000000000000E+00
     -2.29822133325160E-17  -1.16211331961931E-14  -1.16441154095256E-14  -1.95482011291539E-15
      9.35434951989026E-02
      8.00000000000000E-01   8.00000000000000E-01   0.00000000000000E+00   0.00000000000000E+00   2.21403164180082E-14
     -1.56636057173536E-18   2.21387500574365E-14   4.27017235829494E-15   0.00000000000000E+00   0.00000000000000E+00
      0.00000000000000E+00   0.00000000000000E+00  -9.90145007504882E-19  -1.02680223663803E-14  -1.02690125113878E-14
     -2.30973814803743E-15  -4.67717475994513E+00  -4.67717475994513E+00   0.00000000000000E+00   0.00000000000000E+00
     -2.29824033651659E-17  -1.18467551426835E-14  -1.18697375460486E-14  -1.96043421025750E-15
      1.03543495198903E-01
      8.00000000000000E-01   8.00000000000000E-01   0.00000000000000E+00   0.00000000000000E+00   2.23369568856942E-14
      4.27267150660483E-18   2.23412295572008E-14   4.26513834397347E-15   0.00000000000000E+00   0.00000000000000E+00
      0.00000000000000E+00   0.00000000000000E+00  -9.90141789300020E-19  -1.02964823620001E-14  -1.02974725037894E-14
     -2.29884680896955E-15  -5.17717475994513E+00  -5.17717475994513E+00   0.00000000000000E+00   0.00000000000000E+00
     -2.29826018455041E-17  -1.20207744515659E-14  -1.20437570534114E-14  -1.96629153500392E-15
      1.13543495198903E-01
      8.00000000000000E-01   8.00000000000000E-01   0.00000000000000E+00   0.00000000000000E+00   2.24767168084704E-14
     -4.33479399625504E-18   2.24723820144742E-14   4.25950372763029E-15   0.00000000000000E+00   0.00000000000000E+00
      0.00000000000000E+00   0.00000000000000E+00  -9.90138413683077E-19  -1.03141216349342E-14  -1.03151117733479E-14
     -2.28710862381491E-15  -5.67717475994513E+00  -5.67717475994513E+00   0.00000000000000E+00   0.00000000000000E+00
     -2.29828089002800E-17  -1.21342874322260E-14  -1.21572702411263E-14  -1.97239510381539E-15
      1.23543495198903E-01
      8.00000000000000E-01   8.00000000000000E-01   0.00000000000000E+00   0.00000000000000E+00   2.25766227859475E-14
     -3.49709425401212E-18   2.25731256916935E-14   4.25340250392363E-15   0.00000000000000E+00   0.00000000000000E+00
      0.00000000000000E+00   0.00000000000000E+00  -9.90134918714992E-19  -1.03217425763493E-14  -1.03227327112680E-14
     -2.27465737965057E-15  -6.17717475994513E+00  -6.17717475994513E+00   0.00000000000000E+00   0.00000000000000E+00
     -2.29830245621799E-17  -1.22274099558634E-14  -1.22503929804255E-14  -1.97874512427306E-15
      1.33543495198903E-01
      8.00000000000000E-01   8.00000000000000E-01   0.00000000000000E+00   0.00000000000000E+00   2.26521281054111E-14
     -1.89890944965339E-18   2.26502291959615E-14   4.24691710449739E-15   0.00000000000000E+00   0.00000000000000E+00
      0.00000000000000E+00   0.00000000000000E+00  -9.90131326862737E-19  -1.03232633143330E-14  -1.03242534456599E-14
     -2.26157667609324E-15  -6.67717475994513E+00  -6.67717475994513E+00   0.00000000000000E+00   0.00000000000000E+00
     -2.29832488180625E-17  -1.23029925014836E-14  -1.23259757503017E-14  -1.98534042840415E-15
      1.43543495198903E-01
      8.00000000000000E-01   8.00000000000000E-01   0.00000000000000E+00   0.00000000000000E+00   2.27124304693740E-14
      7.94889919075797E-18   2.27203793685648E-14   4.24010186012058E-15   0.00000000000000E+00   0.00000000000000E+00
      0.00000000000000E+00   0.00000000000000E+00  -9.90127650385323E-19  -1.03210992999682E-14  -1.03220894276186E-14
     -2.24792267476243E-15  -7.17717475994513E+00  -7.17717475994513E+00   0.00000000000000E+00   0.00000000000000E+00
     -2.29834816329544E-17  -1.23753064593132E-14  -1.23982899409462E-14  -1.99217918535814E-15
      1.53543495198903E-01
      8.00000000000000E-01   8.00000000000000E-01   0.00000000000000E+00   0.00000000000000E+00   2.27622759097734E-14
      7.20367072460172E-18   2.27694795804980E-14   4.23299481732296E-15   0.00000000000000E+00   0.00000000000000E+00
      0.00000000000000E+00   0.00000000000000E+00  -9.90123900369969E-19  -1.03167425783821E-14  -1.03177327022824E-14
     -2.23373556085732E-15  -7.67717475994513E+00  -7.67717475994513E+00   0.00000000000000E+00   0.00000000000000E+00
     -2.29837229620053E-17  -1.24287631552535E-14  -1.24517468782155E-14  -1.99925925646565E-15
      1.63543495198903E-01
      8.00000000000000E-01   8.00000000000000E-01   0.00000000000000E+00   0.00000000000000E+00   2.28042125955468E-14
      1.24859750127793E-17   2.28166985705596E-14   4.22562397039727E-15   0.00000000000000E+00   0.00000000000000E+00
      0.00000000000000E+00   0.00000000000000E+00  -9.90120084020740E-19  -1.03107625499487E-14  -1.03117526700327E-14
     -2.21904558812322E-15  -8.17717475994513E+00  -8.17717475994513E+00   0.00000000000000E+00   0.00000000000000E+00
     -2.29839727567939E-17  -1.24819619277701E-14  -1.25049459005269E-14  -2.00657838227405E-15
      1.73543495198903E-01
      8.00000000000000E-01   8.00000000000000E-01   0.00000000000000E+00   0.00000000000000E+00   2.28398833157315E-14
     -8.10377641578336E-19   2.28390729380900E-14   4.21801080085432E-15   0.00000000000000E+00   0.00000000000000E+00
      0.00000000000000E+00   0.00000000000000E+00  -9.90116205929043E-19  -1.03035530314445E-14  -1.03045431476505E-14
     -2.20387651376652E-15  -8.67717475994513E+00  -8.67717475994513E+00   0.00000000000000E+00   0.00000000000000E+00
     -2.29842309688469E-17  -1.25115455594707E-14  -1.25345297904395E-14  -2.01413428708780E-15
      1.83543495198903E-01
      8.00000000000000E-01   8.00000000000000E-01   0.00000000000000E+00   0.00000000000000E+00   2.28704885286156E-14
     -7.70494290682365E-18   2.28627835857088E-14   4.21017242304697E-15   0.00000000000000E+00   0.00000000000000E+00
      0.00000000000000E+00   0.00000000000000E+00  -9.90112272175341E-19  -1.02952688506118E-14  -1.02962589628840E-14
     -2.18824768472718E-15  -9.17717475994513E+00  -9.17717475994513E+00   0.00000000000000E+00   0.00000000000000E+00
     -2.29844975516576E-17  -1.25435401252731E-14  -1.25665246228247E-14  -2.02192473831978E-15
      1.93543495198903E-01
      8.00000000000000E-01   8.00000000000000E-01   0.00000000000000E+00   0.00000000000000E+00   2.28969711420370E-14
      1.50415232060570E-17   2.29120126652430E-14   4.20212294033877E-15   0.00000000000000E+00   0.00000000000000E+00
      0.00000000000000E+00   0.00000000000000E+00  -9.90108286785396E-19  -1.02858983339960E-14  -1.02868884422828E-14
     -2.17217536229073E-15  -9.67717475994513E+00  -9.67717475994513E+00   0.00000000000000E+00   0.00000000000000E+00
     -2.29847724617496E-17  -1.26021394504985E-14  -1.26251242229602E-14  -2.02994757804804E-15
      2.03543495198903E-01
      8.00000000000000E-01   8.00000000000000E-01   0.00000000000000E+00   0.00000000000000E+00   2.29201734854747E-14
      7.33467937372018E-19   2.29209069534121E-14   4.19387432790574E-15   0.00000000000000E+00   0.00000000000000E+00
      0.00000000000000E+00   0.00000000000000E+00  -9.90104252015598E-19  -1.02754520159848E-14  -1.02764421202368E-14
     -2.15567359108299E-15  -1.01771747599451E+01  -1.01771747599451E+01   0.00000000000000E+00   0.00000000000000E+00
     -2.29850556591448E-17  -1.26214797775161E-14  -1.26444648331752E-14  -2.03820073682276E-15
      2.13543495198903E-01
      8.00000000000000E-01   8.00000000000000E-01   0.00000000000000E+00   0.00000000000000E+00   2.29409147188003E-14
     -1.05589059646631E-17   2.29303558128356E-14   4.18543703425541E-15   0.00000000000000E+00   0.00000000000000E+00
      0.00000000000000E+00   0.00000000000000E+00  -9.90100171876254E-19  -1.02634925380609E-14  -1.02644826382327E-14
     -2.13875479727428E-15  -1.06771747599451E+01  -1.06771747599451E+01   0.00000000000000E+00   0.00000000000000E+00
     -2.29853471074911E-17  -1.26428878274954E-14  -1.26658731746029E-14  -2.04668223698114E-15
      2.23543495198903E-01
      8.00000000000000E-01   8.00000000000000E-01   0.00000000000000E+00   0.00000000000000E+00   2.29598884755682E-14
      1.41286976109126E-17   2.29740171731792E-14   4.17682043018130E-15   0.00000000000000E+00   0.00000000000000E+00
      0.00000000000000E+00   0.00000000000000E+00  -9.90096050711274E-19  -1.02483830040977E-14  -1.02493731001484E-14
     -2.12143023913369E-15  -1.11771747599451E+01  -1.11771747599451E+01   0.00000000000000E+00   0.00000000000000E+00
     -2.29856467740009E-17  -1.27016584262567E-14  -1.27246440730307E-14  -2.05539019104761E-15
      2.33543495198903E-01
      8.00000000000000E-01   8.00000000000000E-01   0.00000000000000E+00   0.00000000000000E+00   2.29775192747019E-14
     -1.01547611644553E-18   2.29765037985855E-14   4.16803319419255E-15   0.00000000000000E+00   0.00000000000000E+00
      0.00000000000000E+00   0.00000000000000E+00  -9.90091890262487E-19  -1.02246822150748E-14  -1.02256723069650E-14
     -2.10371039491552E-15  -1.16771747599451E+01  -1.16771747599451E+01   0.00000000000000E+00   0.00000000000000E+00
     -2.29859546293802E-17  -1.27278455369911E-14  -1.27508314916205E-14  -2.06432279927703E-15
      2.43543495198903E-01
      8.00000000000000E-01   8.00000000000000E-01   0.00000000000000E+00   0.00000000000000E+00   2.29940752877573E-14
     -1.55661078572893E-17   2.29785091799000E-14   4.15908369713952E-15   0.00000000000000E+00   0.00000000000000E+00
      0.00000000000000E+00   0.00000000000000E+00  -9.90087691226510E-19  -1.01738952459614E-14  -1.01748853336526E-14
     -2.08560534807588E-15  -1.21771747599451E+01  -1.21771747599451E+01   0.00000000000000E+00   0.00000000000000E+00
     -2.29862706478080E-17  -1.27806375755997E-14  -1.28036238462475E-14  -2.07347834906364E-15
      2.53543495198903E-01
      8.00000000000000E-01   8.00000000000000E-01   0.00000000000000E+00   0.00000000000000E+00   2.30097351703064E-14
      6.32988942470557E-18   2.30160650597311E-14   4.14998043183746E-15   0.00000000000000E+00   0.00000000000000E+00
      0.00000000000000E+00   0.00000000000000E+00  -9.90083459696262E-19  -1.00367243301608E-14  -1.00377144136205E-14
     -2.06712521393357E-15  -1.26771747599451E+01  -1.26771747599451E+01   0.00000000000000E+00   0.00000000000000E+00
     -2.29865948070566E-17  -1.29553640513035E-14  -1.29783506461106E-14  -2.08285521790388E-15
      2.63543495198903E-01
      8.00000000000000E-01   8.00000000000000E-01   0.00000000000000E+00   0.00000000000000E+00   2.30245924207525E-14
     -2.60538640257487E-17   2.29985385567268E-14   4.14073252106704E-15   0.00000000000000E+00   0.00000000000000E+00
      0.00000000000000E+00   0.00000000000000E+00  -9.90079195518436E-19  -9.62331671230346E-15  -9.62430679149897E-15
     -2.04828064027192E-15  -1.31771747599451E+01  -1.31771747599451E+01   0.00000000000000E+00   0.00000000000000E+00
     -2.29869270887485E-17  -1.33512448381391E-14  -1.33742317652279E-14  -2.09245188079511E-15
      2.73543495198903E-01
      8.00000000000000E-01   8.00000000000000E-01   0.00000000000000E+00   0.00000000000000E+00   2.30386534245497E-14
     -1.95556408771032E-17   2.30190977836726E-14   4.13135032287588E-15   0.00000000000000E+00   0.00000000000000E+00
      0.00000000000000E+00   0.00000000000000E+00  -9.90074901799984E-19  -8.34352587655095E-15  -8.34451595145275E-15
     -2.02908340072790E-15  -1.36771747599451E+01  -1.36771747599451E+01   0.00000000000000E+00   0.00000000000000E+00
     -2.29872674787920E-17  -1.46515945647411E-14  -1.46745818322199E-14  -2.10226692214798E-15
      2.83543495198903E-01
      8.00000000000000E-01   8.00000000000000E-01   0.00000000000000E+00   0.00000000000000E+00   2.30518313178697E-14
      2.53696140103719E-17   2.30772009318801E-14   4.12184612926560E-15   0.00000000000000E+00   0.00000000000000E+00
      0.00000000000000E+00   0.00000000000000E+00  -9.90070579436499E-19  -4.40750785713425E-15  -4.40849792771368E-15
     -2.00954707796797E-15  -1.41771747599451E+01  -1.41771747599451E+01   0.00000000000000E+00   0.00000000000000E+00
     -2.29876159679359E-17  -1.86457153881985E-14  -1.86687030041665E-14  -2.11229905129762E-15
      2.93543495198903E-01
      8.00000000000000E-01   8.00000000000000E-01   0.00000000000000E+00   0.00000000000000E+00   2.30639309332091E-14
      4.46128753539893E-18   2.30683922207445E-14   4.11223492013493E-15   0.00000000000000E+00   0.00000000000000E+00
      0.00000000000000E+00   0.00000000000000E+00  -9.90066226002406E-19   7.46319591675980E-15   7.46220585053379E-15
     -1.98968780056413E-15  -1.46771747599451E+01  -1.46771747599451E+01   0.00000000000000E+00   0.00000000000000E+00
     -2.29879725523889E-17  -3.05076100987259E-14  -3.05305980712783E-14  -2.12254711957079E-15
      3.03543495198903E-01
      8.00000000000000E-01   8.00000000000000E-01   0.00000000000000E+00   0.00000000000000E+00   2.30746009823342E-14
      1.67357027134273E-17   2.30913366850476E-14   4.10253509432065E-15   0.00000000000000E+00   0.00000000000000E+00
      0.00000000000000E+00   0.00000000000000E+00  -9.90061814640017E-19   4.23824375717516E-14   4.23814475099369E-14
     -1.96952495816042E-15  -1.51771747599451E+01  -1.51771747599451E+01   0.00000000000000E+00   0.00000000000000E+00
     -2.29883372344115E-17  -6.54497958577502E-14  -6.54727841949847E-14  -2.13301013616023E-15
      3.13543495198903E-01
      8.00000000000000E-01   8.00000000000000E-01   0.00000000000000E+00   0.00000000000000E+00   2.30832037029687E-14
     -1.83576544708718E-17   2.30648460484979E-14   4.09276907369868E-15   0.00000000000000E+00  -1.83689474415054E-16
      0.00000000000000E+00   0.00000000000000E+00  -9.90057235967116E-19   1.42274778008662E-13   1.42273787951426E-13
     -1.94908179242763E-15  -1.56771747599451E+01  -1.56771747599451E+01   0.00000000000000E+00   0.00000000000000E+00
     -2.29887100228121E-17  -1.65315645289900E-13  -1.65338633999923E-13  -2.14368728127106E-15
      3.23543495198903E-01
      8.00000000000000E-01   8.00000000000000E-01   0.00000000000000E+00   0.00000000000000E+00   2.30885093131406E-14
      2.33021515288601E-17   2.31118114646695E-14   4.08296369903759E-15   0.00000000000000E+00  -4.59223686037634E-16
      0.00000000000000E+00   0.00000000000000E+00  -9.90052085683595E-19   4.19555467060054E-13   4.19554477007968E-13
     -1.92838577812425E-15  -1.61771747599451E+01  -1.61771747599451E+01   0.00000000000000E+00   0.00000000000000E+00
     -2.29890909335271E-17  -4.42643299381704E-13  -4.42666288472637E-13  -2.15457792091335E-15
      3.33543495198903E-01
      8.00000000000000E-01   8.00000000000000E-01   0.00000000000000E+00   0.00000000000000E+00   2.30879980496815E-14
     -2.05799490475911E-17   2.30674181006339E-14   4.07315044287196E-15   0.00000000000000E+00  -1.19398158369785E-15
      0.00000000000000E+00   0.00000000000000E+00  -9.90045019505058E-19   1.16491772930158E-12   1.16491673925656E-12
     -1.90746880032377E-15  -1.66771747599451E+01  -1.66771747599451E+01   0.00000000000000E+00   0.00000000000000E+00
     -2.29894799909251E-17  -1.18796116787720E-12  -1.18798415735719E-12  -2.16568164254817E-15
      3.43543495198903E-01
      8.00000000000000E-01   8.00000000000000E-01   0.00000000000000E+00   0.00000000000000E+00   2.30763049395642E-14
      1.07113497635742E-17   2.30870162893278E-14   4.06336566578001E-15   0.00000000000000E+00  -3.12272106505591E-15
      0.00000000000000E+00   0.00000000000000E+00  -9.90032031714540E-19   3.10145007320286E-12   3.10144908317083E-12
     -1.88636730527190E-15  -1.71771747599451E+01  -1.71771747599451E+01   0.00000000000000E+00   0.00000000000000E+00
     -2.29898772316427E-17  -3.12451310958292E-12  -3.12453609946015E-12  -2.17699836050811E-15
      3.53543495198903E-01
      8.00000000000000E-01   8.00000000000000E-01   0.00000000000000E+00   0.00000000000000E+00   2.30420225819174E-14
     -1.04672830843191E-17   2.30315552988330E-14   4.05365140795988E-15   0.00000000000000E+00  -7.99049213705483E-15
      0.00000000000000E+00   0.00000000000000E+00  -9.90002246027487E-19   7.95433237934272E-12   7.95433138934048E-12
     -1.86512281526310E-15  -1.76771747599451E+01  -1.76771747599451E+01   0.00000000000000E+00   0.00000000000000E+00
     -2.29902827144983E-17  -7.97733995435662E-12  -7.97736294463933E-12  -2.18852859269679E-15
      3.63543495198903E-01
      8.00000000000000E-01   8.00000000000000E-01   0.00000000000000E+00   0.00000000000000E+00   2.29619852088100E-14
     -5.30796592206480E-18   2.29566772428879E-14   4.04405747935520E-15   0.00000000000000E+00  -1.96547737624107E-14
      0.00000000000000E+00   0.00000000000000E+00  -9.89928707393109E-19   1.96575025858322E-11   1.96575015959035E-11
     -1.84378338417657E-15  -1.81771747599451E+01  -1.81771747599451E+01   0.00000000000000E+00   0.00000000000000E+00
     -2.29906965432800E-17  -1.96804352824500E-11  -1.96804582731465E-11  -2.20027409517863E-15
      3.73543495198903E-01
      8.00000000000000E-01   8.00000000000000E-01   0.00000000000000E+00   0.00000000000000E+00   2.27935408975055E-14
     -1.45236077400010E-17   2.27790172897655E-14   4.03464581504817E-15   0.00000000000000E+00  -4.67489712386311E-14
      0.00000000000000E+00   0.00000000000000E+00  -9.89751844887102E-19   4.67449613510010E-11   4.67449603612492E-11
     -1.82240665329882E-15  -1.86771747599451E+01  -1.86771747599451E+01   0.00000000000000E+00   0.00000000000000E+00
     -2.29911189134624E-17  -4.67677163874200E-11  -4.67677393785389E-11  -2.21223916174934E-15
      3.83543495198903E-01
      8.00000000000000E-01   8.00000000000000E-01   0.00000000000000E+00   0.00000000000000E+00   2.24713054524121E-14
     -1.17461205554871E-18   2.24701308403565E-14   4.02549804908539E-15   0.00000000000000E+00  -1.06723584635146E-13
      0.00000000000000E+00   0.00000000000000E+00  -9.89361347910186E-19   1.06715046920397E-10   1.06715045931036E-10
     -1.80106503072769E-15  -1.91771747599451E+01  -1.91771747599450E+01   0.00000000000000E+00   0.00000000000000E+00
     -2.29915501985618E-17  -1.06737493070326E-10  -1.06737516061876E-10  -2.22443301835770E-15
      3.93543495198903E-01
      8.00000000000000E-01   8.00000000000000E-01   0.00000000000000E+00   0.00000000000000E+00   2.19258666347665E-14
      4.73933483139232E-18   2.19306059695979E-14   4.01672663656432E-15   0.00000000000000E+00  -2.33193787769910E-13
      0.00000000000000E+00   0.00000000000000E+00  -9.88606605569090E-19   2.33167559875722E-10   2.33167558887115E-10
     -1.77985290176758E-15  -1.96771747599451E+01  -1.96771747599449E+01   0.00000000000000E+00   0.00000000000000E+00
     -2.29919910917973E-17  -2.33189466501093E-10  -2.33189489493084E-10  -2.23687373479675E-15
      4.03543495198903E-01
      8.00000000000000E-01   8.00000000000000E-01   0.00000000000000E+00   0.00000000000000E+00   2.11363092739532E-14
     -2.05653919645020E-17   2.11157438819887E-14   4.00848787658552E-15   0.00000000000000E+00  -4.85766815090609E-13
      0.00000000000000E+00   0.00000000000000E+00  -9.87375446590235E-19   4.85737600427963E-10   4.85737599440587E-10
     -1.75889424441702E-15  -2.01771747599451E+01  -2.01771747599447E+01   0.00000000000000E+00   0.00000000000000E+00
     -2.29924428031379E-17  -4.85758692192026E-10  -4.85758715184469E-10  -2.24959363216850E-15
      4.13543495198903E-01
      8.00000000000000E-01   8.00000000000000E-01   0.00000000000000E+00   0.00000000000000E+00   2.01736697599219E-14
      1.13638576227087E-17   2.01850336175446E-14   4.00099130255797E-15   0.00000000000000E+00  -9.60604106453522E-13
      0.00000000000000E+00   0.00000000000000E+00  -9.85696264190289E-19   9.60571043074700E-10   9.60571042089004E-10
     -1.73834640240036E-15  -2.06771747599451E+01  -2.06771747599442E+01   0.00000000000000E+00   0.00000000000000E+00
     -2.29929072664907E-17  -9.60591204129716E-10  -9.60591227122623E-10  -2.26264490015760E-15
      4.23543495198903E-01
      8.00000000000000E-01   8.00000000000000E-01   0.00000000000000E+00   0.00000000000000E+00   1.91639998332380E-14
      3.15180704394365E-18   1.91671516402819E-14   3.99449565763676E-15   0.00000000000000E+00  -1.79556461240715E-12
      0.00000000000000E+00   0.00000000000000E+00  -9.83724176364640E-19   1.79553184442142E-09   1.79553184343770E-09
     -1.71839344662208E-15  -2.11771747599451E+01  -2.11771747599433E+01   0.00000000000000E+00   0.00000000000000E+00
     -2.29933872418015E-17  -1.79555098759593E-09  -1.79555101058932E-09  -2.27610221101468E-15
      4.33543495198903E-01
      8.00000000000000E-01   8.00000000000000E-01   0.00000000000000E+00   0.00000000000000E+00   1.82084981928527E-14
     -1.92021917873075E-18   1.82065779736740E-14   3.98928260561866E-15   0.00000000000000E+00  -3.16248983626677E-12
      0.00000000000000E+00   0.00000000000000E+00  -9.81616355167613E-19   3.16253358411948E-09   3.16253358313787E-09
     -1.69922438915394E-15  -2.16771747599451E+01  -2.16771747599420E+01   0.00000000000000E+00   0.00000000000000E+00
     -2.29938861625495E-17  -3.16255176672195E-09  -3.16255178971583E-09  -2.29005821646472E-15
      4.43543495198903E-01
      8.00000000000000E-01   8.00000000000000E-01   0.00000000000000E+00   0.00000000000000E+00   1.73569996296553E-14
      8.97993717507990E-18   1.73659795668304E-14   3.98561094017579E-15   0.00000000000000E+00  -5.24424264981257E-12
      0.00000000000000E+00   0.00000000000000E+00  -9.79461481970924E-19   5.24422146936098E-09   5.24422146838152E-09
     -1.68100037031045E-15  -2.21771747599451E+01  -2.21771747599399E+01   0.00000000000000E+00   0.00000000000000E+00
     -2.29944076759302E-17  -5.24423881136672E-09  -5.24423883436113E-09  -2.30461056986534E-15
      4.53543495198903E-01
      8.00000000000000E-01   8.00000000000000E-01   0.00000000000000E+00   0.00000000000000E+00   1.66242270616911E-14
      2.32683398262162E-19   1.66244597450893E-14   3.98367028799767E-15   0.00000000000000E+00  -8.20311270369025E-12
      0.00000000000000E+00   0.00000000000000E+00  -9.77291927570775E-19   8.20307051397901E-09   8.20307051300172E-09
     -1.66382523837894E-15  -2.26771747599451E+01  -2.26771747599369E+01   0.00000000000000E+00   0.00000000000000E+00
     -2.29949550364577E-17  -8.20308711446634E-09  -8.20308713746130E-09  -2.31984504961871E-15
      4.63543495198903E-01
      8.00000000000000E-01   8.00000000000000E-01   0.00000000000000E+00   0.00000000000000E+00   1.60025168298217E-14
      1.78301800236203E-18   1.60042998478240E-14   3.98355663165721E-15   0.00000000000000E+00  -1.21574878641603E-11