DF-ISE text

Info {
  version   = 1.0
  type      = xyplot
  datasets  = [
    "time"
    "Ntop OuterVoltage" "Ntop InnerVoltage" "Ntop QuasiFermiPotential" "Ntop DisplacementCurrent" "Ntop eCurrent"
    "Ntop hCurrent" "Ntop TotalCurrent" "Ntop Charge" "Ptop OuterVoltage" "Ptop InnerVoltage"
    "Ptop QuasiFermiPotential" "Ptop DisplacementCurrent" "Ptop eCurrent" "Ptop hCurrent" "Ptop TotalCurrent"
    "Ptop Charge" "Pbot OuterVoltage" "Pbot InnerVoltage" "Pbot QuasiFermiPotential" "Pbot DisplacementCurrent"
    "Pbot eCurrent" "Pbot hCurrent" "Pbot TotalCurrent" "Pbot Charge" ]
  functions = [
    Time
    OuterVoltage InnerVoltage QuasiFermiPotential DisplacementCurrent eCurrent
    hCurrent TotalCurrent Charge OuterVoltage InnerVoltage
    QuasiFermiPotential DisplacementCurrent eCurrent hCurrent TotalCurrent
    Charge OuterVoltage InnerVoltage QuasiFermiPotential DisplacementCurrent
    eCurrent hCurrent TotalCurrent Charge ]
}

Data {
      1.00000000000000E-03
      8.00000000000000E-01   8.00000000000000E-01   0.00000000000000E+00   0.00000000000000E+00   5.44428364319776E-15
      3.67695135050072E-19   5.44465133833281E-15   4.25718242849853E-15   0.00000000000000E+00   0.00000000000000E+00
      0.00000000000000E+00   0.00000000000000E+00  -1.91623792125422E-18  -7.21712581329099E-16  -7.23628819250353E-16
     -2.34241537556070E-15  -5.00000000000000E-02  -5.00000000000000E-02   0.00000000000000E+00   0.00000000000000E+00
     -2.29808638246406E-17  -4.69804165525781E-15  -4.72102251908245E-15  -1.91476705293783E-15
      2.91111111111111E-03
      8.00000000000000E-01   8.00000000000000E-01   0.00000000000000E+00   0.00000000000000E+00   5.76033768273337E-15
      1.11382899865273E-18   5.76145151173203E-15   4.25806923509475E-15   0.00000000000000E+00   0.00000000000000E+00
      0.00000000000000E+00   0.00000000000000E+00  -1.91623791963651E-18  -7.20432607775721E-16  -7.22348845695357E-16
     -2.34241383375396E-15  -1.45555555555556E-01  -1.45555555555555E-01   0.00000000000000E+00   0.00000000000000E+00
     -2.29808936222295E-17  -5.01612177241444E-15  -5.03910266603667E-15  -1.91565540134080E-15
      6.56345679012346E-03
      8.00000000000000E-01   8.00000000000000E-01   0.00000000000000E+00   0.00000000000000E+00   6.32492916413691E-15
      8.36467114535712E-19   6.32576563125144E-15   4.25976016102599E-15   0.00000000000000E+00   0.00000000000000E+00
      0.00000000000000E+00   0.00000000000000E+00  -1.91623791863484E-18  -7.18286270944145E-16  -7.20202508862780E-16
     -2.34240905571150E-15  -3.28172839506173E-01  -3.28172839506173E-01   0.00000000000000E+00   0.00000000000000E+00
     -2.29809505210024E-17  -5.58258217186766E-15  -5.60556312238866E-15  -1.91735110531449E-15
      1.35434951989026E-02
      8.00000000000000E-01   8.00000000000000E-01   0.00000000000000E+00   0.00000000000000E+00   7.29616335991173E-15
      1.31290823180235E-18   7.29747626814353E-15   4.26297211089616E-15   0.00000000000000E+00   0.00000000000000E+00
      0.00000000000000E+00   0.00000000000000E+00  -1.91623791280205E-18  -7.14840984829724E-16  -7.16757222742526E-16
     -2.34238715795664E-15  -6.77174759945130E-01  -6.77174759945130E-01   0.00000000000000E+00   0.00000000000000E+00
     -2.29810591013266E-17  -6.55773798629968E-15  -6.58071904540100E-15  -1.92058495293952E-15
      2.35434951989026E-02
      8.00000000000000E-01   8.00000000000000E-01   0.00000000000000E+00   0.00000000000000E+00   8.51110284867809E-15
     -4.03488308226908E-19   8.51069936036986E-15   4.26748579078364E-15   0.00000000000000E+00   0.00000000000000E+00
      0.00000000000000E+00   0.00000000000000E+00  -1.91623788315961E-18  -7.11353294063683E-16  -7.13269531946843E-16
     -2.34227829708495E-15  -1.17717475994513E+00  -1.17717475994513E+00   0.00000000000000E+00   0.00000000000000E+00
     -2.29812144568851E-17  -7.77444861396612E-15  -7.79742982842300E-15  -1.92520749369870E-15
      3.35434951989026E-02
      8.00000000000000E-01   8.00000000000000E-01   0.00000000000000E+00   0.00000000000000E+00   9.56039500916322E-15
      1.80740090734045E-18   9.56220241007056E-15   4.27173823133986E-15   0.00000000000000E+00   0.00000000000000E+00
      0.00000000000000E+00   0.00000000000000E+00  -1.91623777694198E-18  -7.09535725888035E-16  -7.11451963664977E-16
     -2.34190451762888E-15  -1.67717475994513E+00  -1.67717475994513E+00   0.00000000000000E+00   0.00000000000000E+00
     -2.29813701002929E-17  -8.82776907630529E-15  -8.85075044640559E-15  -1.92983371371098E-15
      4.35434951989026E-02
      8.00000000000000E-01   8.00000000000000E-01   0.00000000000000E+00   0.00000000000000E+00   1.04312423590275E-14
     -3.61458827580362E-18   1.04276277707517E-14   4.27538673396209E-15   0.00000000000000E+00   0.00000000000000E+00
      0.00000000000000E+00   0.00000000000000E+00  -1.91623748510409E-18  -7.10007165028521E-16  -7.11923402513625E-16
     -2.34087348856675E-15  -2.17717475994513E+00  -2.17717475994513E+00   0.00000000000000E+00   0.00000000000000E+00
     -2.29815276966001E-17  -9.69272284054147E-15  -9.71570436823807E-15  -1.93451324539535E-15
      5.35434951989026E-02
      8.00000000000000E-01   8.00000000000000E-01   0.00000000000000E+00   0.00000000000000E+00   1.10902436859634E-14
      1.05195446334297E-18   1.10912956404268E-14   4.27789125983733E-15   0.00000000000000E+00   0.00000000000000E+00
      0.00000000000000E+00   0.00000000000000E+00  -1.91623683891952E-18  -7.13963377457335E-16  -7.15879614296255E-16
     -2.33857672290495E-15  -2.67717475994513E+00  -2.67717475994513E+00   0.00000000000000E+00   0.00000000000000E+00
     -2.29816895542657E-17  -1.03524343365763E-14  -1.03754160261305E-14  -1.93931453693238E-15
      6.35434951989026E-02
      8.00000000000000E-01   8.00000000000000E-01   0.00000000000000E+00   0.00000000000000E+00   1.16263861094860E-14
     -6.17074211906372E-18   1.16202153673669E-14   4.27863617542579E-15   0.00000000000000E+00   0.00000000000000E+00
      0.00000000000000E+00   0.00000000000000E+00  -1.91623567052064E-18  -7.23128645131249E-16  -7.25044880801769E-16
     -2.33435582032857E-15  -3.17717475994513E+00  -3.17717475994513E+00   0.00000000000000E+00   0.00000000000000E+00
     -2.29818571249525E-17  -1.08721886294402E-14  -1.08951704865652E-14  -1.94428035509723E-15
      7.35434951989026E-02
      8.00000000000000E-01   8.00000000000000E-01   0.00000000000000E+00   0.00000000000000E+00   1.20635054812866E-14
      5.52748250839847E-18   1.20690329637950E-14   4.27736499069889E-15   0.00000000000000E+00   0.00000000000000E+00
      0.00000000000000E+00   0.00000000000000E+00  -1.91623393272869E-18  -7.39635095254404E-16  -7.41551329187132E-16
     -2.32792408085267E-15  -3.67717475994513E+00  -3.67717475994513E+00   0.00000000000000E+00   0.00000000000000E+00
     -2.29820314424933E-17  -1.13044996031654E-14  -1.13274816346079E-14  -1.94944090984623E-15
      8.35434951989026E-02
      8.00000000000000E-01   8.00000000000000E-01   0.00000000000000E+00   0.00000000000000E+00   1.24058792191385E-14
     -2.62738563934182E-18   1.24032518334992E-14   4.27437588894350E-15   0.00000000000000E+00   0.00000000000000E+00
      0.00000000000000E+00   0.00000000000000E+00  -1.91623174644054E-18  -7.64849314093801E-16  -7.66765545840242E-16
     -2.31955577602810E-15  -4.17717475994513E+00  -4.17717475994513E+00   0.00000000000000E+00   0.00000000000000E+00
     -2.29822133325160E-17  -1.16135040743264E-14  -1.16364862876590E-14  -1.95482011291539E-15
      9.35434951989026E-02
      8.00000000000000E-01   8.00000000000000E-01   0.00000000000000E+00   0.00000000000000E+00   1.26695809768127E-14
     -8.64000200527891E-19   1.26687169766121E-14   4.27017235831486E-15   0.00000000000000E+00   0.00000000000000E+00
      0.00000000000000E+00   0.00000000000000E+00  -1.91622927130897E-18  -7.96323876286864E-16  -7.98240105558173E-16
     -2.30973814805734E-15  -4.67717475994513E+00  -4.67717475994513E+00   0.00000000000000E+00   0.00000000000000E+00
     -2.29824033651660E-17  -1.18474944676888E-14  -1.18704768710540E-14  -1.96043421025751E-15
      1.03543495198903E-01
      8.00000000000000E-01   8.00000000000000E-01   0.00000000000000E+00   0.00000000000000E+00   1.28662215271402E-14
      4.50284726794889E-18   1.28707243744082E-14   4.26513834399326E-15   0.00000000000000E+00   0.00000000000000E+00
      0.00000000000000E+00   0.00000000000000E+00  -1.91622661317573E-18  -8.24900921692871E-16  -8.26817148306047E-16
     -2.29884680898934E-15  -5.17717475994513E+00  -5.17717475994513E+00   0.00000000000000E+00   0.00000000000000E+00
     -2.29826018455043E-17  -1.20209246242566E-14  -1.20439072261021E-14  -1.96629153500392E-15
      1.13543495198903E-01
      8.00000000000000E-01   8.00000000000000E-01   0.00000000000000E+00   0.00000000000000E+00   1.30059815497013E-14
     -2.89289630781763E-18   1.30030886533935E-14   4.25950372764998E-15   0.00000000000000E+00   0.00000000000000E+00
      0.00000000000000E+00   0.00000000000000E+00  -1.91622383271318E-18  -8.42477286643650E-16  -8.44393510476363E-16
     -2.28710862383459E-15  -5.67717475994513E+00  -5.67717475994513E+00   0.00000000000000E+00   0.00000000000000E+00
     -2.29828089002799E-17  -1.21357123340169E-14  -1.21586951429171E-14  -1.97239510381539E-15
      1.23543495198903E-01
      8.00000000000000E-01   8.00000000000000E-01   0.00000000000000E+00   0.00000000000000E+00   1.31058876447676E-14
     -3.05719158174423E-18   1.31028304531858E-14   4.25340250394322E-15   0.00000000000000E+00   0.00000000000000E+00
      0.00000000000000E+00   0.00000000000000E+00  -1.91622095652415E-18  -8.50092657386539E-16  -8.52008878343063E-16
     -2.27465737967015E-15  -6.17717475994513E+00  -6.17717475994513E+00   0.00000000000000E+00   0.00000000000000E+00
     -2.29830245621800E-17  -1.22278385502806E-14  -1.22508215748428E-14  -1.97874512427306E-15
      1.33543495198903E-01
      8.00000000000000E-01   8.00000000000000E-01   0.00000000000000E+00   0.00000000000000E+00   1.31813931005304E-14
     -1.33877789597210E-17   1.31680053215706E-14   4.24691710451687E-15   0.00000000000000E+00   0.00000000000000E+00
      0.00000000000000E+00   0.00000000000000E+00  -1.91621800490837E-18  -8.51599972280612E-16  -8.53516190285520E-16
     -2.26157667611274E-15  -6.67717475994513E+00  -6.67717475994513E+00   0.00000000000000E+00   0.00000000000000E+00
     -2.29832488180624E-17  -1.22915058824671E-14  -1.23144891312851E-14  -1.98534042840412E-15
      1.43543495198903E-01
      8.00000000000000E-01   8.00000000000000E-01   0.00000000000000E+00   0.00000000000000E+00   1.32416956205441E-14
      1.51224096586687E-17   1.32568180302028E-14   4.24010186014001E-15   0.00000000000000E+00   0.00000000000000E+00
      0.00000000000000E+00   0.00000000000000E+00  -1.91621498851499E-18  -8.49432614486365E-16  -8.51348829474880E-16
     -2.24792267478185E-15  -7.17717475994513E+00  -7.17717475994513E+00   0.00000000000000E+00   0.00000000000000E+00
     -2.29834816329548E-17  -1.23824857190949E-14  -1.24054692007279E-14  -1.99217918535815E-15
      1.53543495198903E-01
      8.00000000000000E-01   8.00000000000000E-01   0.00000000000000E+00   0.00000000000000E+00   1.32915412378742E-14
     -6.04559542109756E-18   1.32854956424531E-14   4.23299481734228E-15   0.00000000000000E+00   0.00000000000000E+00
      0.00000000000000E+00   0.00000000000000E+00  -1.91621191345425E-18  -8.45055297734650E-16  -8.46971509648104E-16
     -2.23373556087667E-15  -7.67717475994513E+00  -7.67717475994513E+00   0.00000000000000E+00   0.00000000000000E+00
     -2.29837229620058E-17  -1.24155404098430E-14  -1.24385241328050E-14  -1.99925925646561E-15
      1.63543495198903E-01
      8.00000000000000E-01   8.00000000000000E-01   0.00000000000000E+00   0.00000000000000E+00   1.33334781226691E-14
      4.30224606440318E-19   1.33339083472755E-14   4.22562397041651E-15   0.00000000000000E+00   0.00000000000000E+00
      0.00000000000000E+00   0.00000000000000E+00  -1.91620878743067E-18  -8.39100407961968E-16  -8.41016616749398E-16
     -2.21904558814250E-15  -8.17717475994513E+00  -8.17717475994513E+00   0.00000000000000E+00   0.00000000000000E+00
     -2.29839727567932E-17  -1.24699077577694E-14  -1.24928917305262E-14  -2.00657838227401E-15
      1.73543495198903E-01
      8.00000000000000E-01   8.00000000000000E-01   0.00000000000000E+00   0.00000000000000E+00   1.33691490652470E-14
     -3.00174835851860E-18   1.33661473168885E-14   4.21801080087352E-15   0.00000000000000E+00   0.00000000000000E+00
      0.00000000000000E+00   0.00000000000000E+00  -1.91620561448964E-18  -8.31887144101817E-16  -8.33803349716306E-16
     -2.20387651378575E-15  -8.67717475994513E+00  -8.67717475994513E+00   0.00000000000000E+00   0.00000000000000E+00
     -2.29842309688469E-17  -1.25093597362033E-14  -1.25323439671722E-14  -2.01413428708778E-15
      1.83543495198903E-01
      8.00000000000000E-01   8.00000000000000E-01   0.00000000000000E+00   0.00000000000000E+00   1.33997545252432E-14
      2.16153499902314E-17   1.34213698752335E-14   4.21017242306618E-15   0.00000000000000E+00   0.00000000000000E+00
      0.00000000000000E+00   0.00000000000000E+00  -1.91620239889853E-18  -8.23624340613548E-16  -8.25540543012447E-16
     -2.18824768474634E-15  -9.17717475994513E+00  -9.17717475994513E+00   0.00000000000000E+00   0.00000000000000E+00
     -2.29844975516581E-17  -1.25728448346694E-14  -1.25958293322210E-14  -2.02192473831983E-15
      1.93543495198903E-01
      8.00000000000000E-01   8.00000000000000E-01   0.00000000000000E+00   0.00000000000000E+00   1.34262374119129E-14
      2.37338938990046E-17   1.34499713058119E-14   4.20212294035788E-15   0.00000000000000E+00   0.00000000000000E+00
      0.00000000000000E+00   0.00000000000000E+00  -1.91619914530378E-18  -8.14166160996967E-16  -8.16082360142271E-16
     -2.17217536230983E-15  -9.67717475994513E+00  -9.67717475994513E+00   0.00000000000000E+00   0.00000000000000E+00
     -2.29847724617495E-17  -1.26109041732078E-14  -1.26338889456696E-14  -2.02994757804804E-15
      2.03543495198903E-01
      8.00000000000000E-01   8.00000000000000E-01   0.00000000000000E+00   0.00000000000000E+00   1.34494400562183E-14
     -1.04222794392371E-17   1.34390177767791E-14   4.19387432792474E-15   0.00000000000000E+00   0.00000000000000E+00
      0.00000000000000E+00   0.00000000000000E+00  -1.91619585424711E-18  -8.03791198439587E-16  -8.05707394293834E-16
     -2.15567359110204E-15  -1.01771747599451E+01  -1.01771747599451E+01   0.00000000000000E+00   0.00000000000000E+00
     -2.29850556591449E-17  -1.26103253268261E-14  -1.26333103824852E-14  -2.03820073682271E-15
      2.13543495198903E-01
      8.00000000000000E-01   8.00000000000000E-01   0.00000000000000E+00   0.00000000000000E+00   1.34701816195880E-14
      1.11130430438729E-18   1.34712929238924E-14   4.18543703427440E-15   0.00000000000000E+00   0.00000000000000E+00
      0.00000000000000E+00   0.00000000000000E+00  -1.91619253030096E-18  -7.91899405956349E-16  -7.93815598486650E-16
     -2.13875479729327E-15  -1.06771747599451E+01  -1.06771747599451E+01   0.00000000000000E+00   0.00000000000000E+00
     -2.29853471074914E-17  -1.26544919782982E-14  -1.26774773254057E-14  -2.04668223698114E-15
      2.23543495198903E-01
      8.00000000000000E-01   8.00000000000000E-01   0.00000000000000E+00   0.00000000000000E+00   1.34891557371990E-14
     -6.87421801954163E-18   1.34822815191794E-14   4.17682043020016E-15   0.00000000000000E+00   0.00000000000000E+00
      0.00000000000000E+00   0.00000000000000E+00  -1.91618917219192E-18  -7.76700877654787E-16  -7.78617066826979E-16
     -2.12143023915263E-15  -1.11771747599451E+01  -1.11771747599451E+01   0.00000000000000E+00   0.00000000000000E+00
     -2.29856467740013E-17  -1.26806788055785E-14  -1.27036644523525E-14  -2.05539019104753E-15
      2.33543495198903E-01
      8.00000000000000E-01   8.00000000000000E-01   0.00000000000000E+00   0.00000000000000E+00   1.35067869296776E-14
     -8.07346703299068E-18   1.34987134626446E-14   4.16803319421139E-15   0.00000000000000E+00   0.00000000000000E+00
      0.00000000000000E+00   0.00000000000000E+00  -1.91618578708253E-18  -7.53037885481208E-16  -7.54954071268290E-16
     -2.10371039493441E-15  -1.16771747599451E+01  -1.16771747599451E+01   0.00000000000000E+00   0.00000000000000E+00
     -2.29859546293801E-17  -1.27207734367469E-14  -1.27437593913763E-14  -2.06432279927698E-15
      2.43543495198903E-01
      8.00000000000000E-01   8.00000000000000E-01   0.00000000000000E+00   0.00000000000000E+00   1.35233433703356E-14
      8.27663266183558E-18   1.35316200029974E-14   4.15908369715837E-15   0.00000000000000E+00   0.00000000000000E+00
      0.00000000000000E+00   0.00000000000000E+00  -1.91618237577787E-18  -7.02314503751469E-16  -7.04230686127247E-16
     -2.08560534809472E-15  -1.21771747599451E+01  -1.21771747599451E+01   0.00000000000000E+00   0.00000000000000E+00
     -2.29862706478093E-17  -1.28044030462224E-14  -1.28273893168702E-14  -2.07347834906366E-15
      2.53543495198903E-01
      8.00000000000000E-01   8.00000000000000E-01   0.00000000000000E+00   0.00000000000000E+00   1.35390037165287E-14
     -1.00188957106655E-17   1.35289848208181E-14   4.14998043185617E-15   0.00000000000000E+00   0.00000000000000E+00
      0.00000000000000E+00   0.00000000000000E+00  -1.91617893802173E-18  -5.65090239015174E-16  -5.67006417953196E-16
     -2.06712521395236E-15  -1.26771747599451E+01  -1.26771747599451E+01   0.00000000000000E+00   0.00000000000000E+00
     -2.29865948070561E-17  -1.29389918080578E-14  -1.29619784028649E-14  -2.08285521790380E-15
      2.63543495198903E-01
      8.00000000000000E-01   8.00000000000000E-01   0.00000000000000E+00   0.00000000000000E+00   1.35538614684437E-14
     -7.95546059940668E-18   1.35459060078443E-14   4.14073252108578E-15   0.00000000000000E+00   0.00000000000000E+00
      0.00000000000000E+00   0.00000000000000E+00  -1.91617547873603E-18  -1.51725025991721E-16  -1.53641201470458E-16
     -2.04828064029066E-15  -1.31771747599451E+01  -1.31771747599451E+01   0.00000000000000E+00   0.00000000000000E+00
     -2.29869270887489E-17  -1.33692778792851E-14  -1.33922648063738E-14  -2.09245188079511E-15
      2.73543495198903E-01
      8.00000000000000E-01   8.00000000000000E-01   0.00000000000000E+00   0.00000000000000E+00   1.35679230132228E-14
      8.01365929355754E-18   1.35759366725164E-14   4.13135032289458E-15   0.00000000000000E+00   0.00000000000000E+00
      0.00000000000000E+00   0.00000000000000E+00  -1.91617199757993E-18   1.12817404222506E-15   1.12625787022748E-15
     -2.02908340074659E-15  -1.36771747599451E+01  -1.36771747599451E+01   0.00000000000000E+00   0.00000000000000E+00
     -2.29872674787920E-17  -1.46792072752651E-14  -1.47021945427438E-14  -2.10226692214800E-15
      2.83543495198903E-01
      8.00000000000000E-01   8.00000000000000E-01   0.00000000000000E+00   0.00000000000000E+00   1.35811014885354E-14
      2.95893044126833E-17   1.36106907929481E-14   4.12184612928420E-15   0.00000000000000E+00   0.00000000000000E+00
      0.00000000000000E+00   0.00000000000000E+00  -1.91616849726142E-18   5.06417144679137E-15   5.06225527829410E-15
     -2.00954707798662E-15  -1.41771747599451E+01  -1.41771747599451E+01   0.00000000000000E+00   0.00000000000000E+00
     -2.29876159679359E-17  -1.86499584552743E-14  -1.86729460712422E-14  -2.11229905129759E-15
      2.93543495198903E-01
      8.00000000000000E-01   8.00000000000000E-01   0.00000000000000E+00   0.00000000000000E+00   1.35932017280289E-14
     -5.84145514430976E-18   1.35873602728845E-14   4.11223492015344E-15   0.00000000000000E+00   0.00000000000000E+00
      0.00000000000000E+00   0.00000000000000E+00  -1.91616497218251E-18   1.69348475343344E-14   1.69329313693622E-14
     -1.98968780058273E-15  -1.46771747599451E+01  -1.46771747599451E+01   0.00000000000000E+00   0.00000000000000E+00
     -2.29879725523888E-17  -3.04973036696943E-14  -3.05202916422467E-14  -2.12254711957071E-15
      3.03543495198903E-01
      8.00000000000000E-01   8.00000000000000E-01   0.00000000000000E+00   0.00000000000000E+00   1.36038724441098E-14
     -2.44862487722495E-17   1.35793861953375E-14   4.10253509433904E-15   0.00000000000000E+00  -9.18447372075268E-17
      0.00000000000000E+00   0.00000000000000E+00  -1.91616139502187E-18   5.18541251735500E-14   5.18522090121550E-14
     -1.96952495817897E-15  -1.51771747599451E+01  -1.51771747599451E+01   0.00000000000000E+00   0.00000000000000E+00
     -2.29883372344110E-17  -6.54086068702580E-14  -6.54315952074924E-14  -2.13301013616008E-15
      3.13543495198903E-01
      8.00000000000000E-01   8.00000000000000E-01   0.00000000000000E+00   0.00000000000000E+00   1.36124758744590E-14
     -9.89634409149221E-18   1.36025795303675E-14   4.09276907371715E-15   0.00000000000000E+00  -1.83689474415054E-16
      0.00000000000000E+00   0.00000000000000E+00  -1.91615765517383E-18   1.51746478194241E-13   1.51744562036586E-13
     -1.94908179244614E-15  -1.56771747599451E+01  -1.56771747599451E+01   0.00000000000000E+00   0.00000000000000E+00
     -2.29887100228130E-17  -1.65324152856931E-13  -1.65347141566954E-13  -2.14368728127102E-15
      3.23543495198903E-01
      8.00000000000000E-01   8.00000000000000E-01   0.00000000000000E+00   0.00000000000000E+00   1.36177822362501E-14
      9.26224044632197E-18   1.36270444766964E-14   4.08296369905597E-15   0.00000000000000E+00  -4.59223686037634E-16
      0.00000000000000E+00   0.00000000000000E+00  -1.91615333614897E-18   4.29027124334455E-13   4.29025208181119E-13
     -1.92838577814273E-15  -1.61771747599451E+01  -1.61771747599451E+01   0.00000000000000E+00   0.00000000000000E+00
     -2.29890909335262E-17  -4.42629263566882E-13  -4.42652252657815E-13  -2.15457792091326E-15
      3.33543495198903E-01
      8.00000000000000E-01   8.00000000000000E-01   0.00000000000000E+00   0.00000000000000E+00   1.36172717646633E-14
     -9.54605568752274E-18   1.36077257089757E-14   4.07315044289036E-15   0.00000000000000E+00  -1.19398158369785E-15
      0.00000000000000E+00   0.00000000000000E+00  -1.91614707712817E-18   1.17438930905528E-12   1.17438739290820E-12
     -1.90746880034221E-15  -1.66771747599451E+01  -1.66771747599451E+01   0.00000000000000E+00   0.00000000000000E+00
     -2.29894799909253E-17  -1.18797212913719E-12  -1.18799511861718E-12  -2.16568164254814E-15
      3.43543495198903E-01
      8.00000000000000E-01   8.00000000000000E-01   0.00000000000000E+00   0.00000000000000E+00   1.36055794844709E-14
      7.21918384343287E-18   1.36127986683144E-14   4.06336566579835E-15   0.00000000000000E+00  -3.12272106505591E-15
      0.00000000000000E+00   0.00000000000000E+00  -1.91613483634555E-18   3.11092167032208E-12   3.11091975418725E-12
     -1.88636730529032E-15  -1.71771747599451E+01  -1.71771747599451E+01   0.00000000000000E+00   0.00000000000000E+00
     -2.29898772316422E-17  -3.12450956297833E-12  -3.12453255285556E-12  -2.17699836050803E-15
      3.53543495198903E-01
      8.00000000000000E-01   8.00000000000000E-01   0.00000000000000E+00   0.00000000000000E+00   1.35712979927845E-14
      2.42738144090138E-18   1.35737253742254E-14   4.05365140797823E-15   0.00000000000000E+00  -7.99049213705483E-15
      0.00000000000000E+00   0.00000000000000E+00  -1.91610566841835E-18   7.96380406815918E-12   7.96380215205352E-12
     -1.86512281528149E-15  -1.76771747599451E+01  -1.76771747599451E+01   0.00000000000000E+00   0.00000000000000E+00
     -2.29902827144989E-17  -7.97735288714509E-12  -7.97737587742780E-12  -2.18852859269675E-15
      3.63543495198903E-01
      8.00000000000000E-01   8.00000000000000E-01   0.00000000000000E+00   0.00000000000000E+00   1.34912615214389E-14
     -2.21453976238939E-17   1.34691161238150E-14   4.04405747937344E-15   0.00000000000000E+00  -1.96547737624107E-14
      0.00000000000000E+00   0.00000000000000E+00  -1.91603249056242E-18   1.96669742626745E-11   1.96669723466420E-11
     -1.84378338419493E-15  -1.81771747599451E+01  -1.81771747599451E+01   0.00000000000000E+00   0.00000000000000E+00
     -2.29906965432793E-17  -1.96804184720694E-11  -1.96804414627659E-11  -2.20027409517852E-15
      3.73543495198903E-01
      8.00000000000000E-01   8.00000000000000E-01   0.00000000000000E+00   0.00000000000000E+00   1.33228181519882E-14
      1.57208554911971E-17   1.33385390074794E-14   4.03464581506652E-15   0.00000000000000E+00  -4.67489712386311E-14
      0.00000000000000E+00   0.00000000000000E+00  -1.91585544559099E-18   4.67544330676132E-11   4.67544311517578E-11
     -1.82240665331718E-15  -1.86771747599451E+01  -1.86771747599451E+01   0.00000000000000E+00   0.00000000000000E+00
     -2.29911189134624E-17  -4.67677466996464E-11  -4.67677696907653E-11  -2.21223916174934E-15
      3.83543495198903E-01
      8.00000000000000E-01   8.00000000000000E-01   0.00000000000000E+00   0.00000000000000E+00   1.30005837003510E-14
     -8.51467927875039E-18   1.29920690210723E-14   4.02549804910364E-15   0.00000000000000E+00  -1.06723584635146E-13
      0.00000000000000E+00   0.00000000000000E+00  -1.91546378254357E-18   1.06724518590674E-10   1.06724516675211E-10
     -1.80106503074605E-15  -1.91771747599451E+01  -1.91771747599450E+01   0.00000000000000E+00   0.00000000000000E+00
     -2.29915501985615E-17  -1.06737485752681E-10  -1.06737508744232E-10  -2.22443301835760E-15
      3.93543495198903E-01
      8.00000000000000E-01   8.00000000000000E-01   0.00000000000000E+00   0.00000000000000E+00   1.24551459419771E-14
     -2.14185995412616E-18   1.24530040820230E-14   4.01672663658259E-15   0.00000000000000E+00  -2.33193787769910E-13
      0.00000000000000E+00   0.00000000000000E+00  -1.91470659326046E-18   2.33177031534933E-10   2.33177029620227E-10
     -1.77985290178592E-15  -1.96771747599451E+01  -1.96771747599449E+01   0.00000000000000E+00   0.00000000000000E+00
     -2.29919910917973E-17  -2.33189459632318E-10  -2.33189482624309E-10  -2.23687373479665E-15
      4.03543495198903E-01
      8.00000000000000E-01   8.00000000000000E-01   0.00000000000000E+00   0.00000000000000E+00   1.16655896986074E-14
      3.07442851410740E-18   1.16686641271215E-14   4.00848787660386E-15   0.00000000000000E+00  -4.85766815090609E-13
      0.00000000000000E+00   0.00000000000000E+00  -1.91347188430663E-18   4.85747072091566E-10   4.85747070178094E-10
     -1.75889424443538E-15  -2.01771747599451E+01  -2.01771747599447E+01   0.00000000000000E+00   0.00000000000000E+00
     -2.29924428031386E-17  -4.85758715849779E-10  -4.85758738842222E-10  -2.24959363216848E-15
      4.13543495198903E-01
      8.00000000000000E-01   8.00000000000000E-01   0.00000000000000E+00   0.00000000000000E+00   1.07029512910632E-14
      1.20963025115579E-17   1.07150475935748E-14   4.00099130257626E-15   0.00000000000000E+00  -9.60604106453522E-13
      0.00000000000000E+00   0.00000000000000E+00  -1.91178857151597E-18   9.60580514747570E-10   9.60580512835782E-10
     -1.73834640241873E-15  -2.06771747599451E+01  -2.06771747599442E+01   0.00000000000000E+00   0.00000000000000E+00
     -2.29929072664909E-17  -9.60591204890469E-10  -9.60591227883377E-10  -2.26264490015752E-15
      4.23543495198903E-01
      8.00000000000000E-01   8.00000000000000E-01   0.00000000000000E+00   0.00000000000000E+00   9.69328231308007E-15
      1.83238729678190E-17   9.71160618604789E-15   3.99449565765511E-15   0.00000000000000E+00  -1.79556461240715E-12
      0.00000000000000E+00   0.00000000000000E+00  -1.90981265861419E-18   1.79554131605443E-09   1.79554131414462E-09
     -1.71839344664047E-15  -2.11771747599451E+01  -2.11771747599433E+01   0.00000000000000E+00   0.00000000000000E+00
     -2.29933872418016E-17  -1.79555100275740E-09  -1.79555102575079E-09  -2.27610221101464E-15
      4.33543495198903E-01
      8.00000000000000E-01   8.00000000000000E-01   0.00000000000000E+00   0.00000000000000E+00   8.73778126113314E-15
     -2.11640175910291E-18   8.73566485937404E-15   3.98928260563699E-15   0.00000000000000E+00  -3.16258168100398E-12
      0.00000000000000E+00   0.00000000000000E+00  -1.90770258108115E-18   3.16254305584083E-09   3.16254305393313E-09
     -1.69922438917236E-15  -2.16771747599451E+01  -2.16771747599420E+01   0.00000000000000E+00   0.00000000000000E+00
     -2.29938861625495E-17  -3.16255176660408E-09  -3.16255178959797E-09  -2.29005821646464E-15
      4.43543495198903E-01
      8.00000000000000E-01   8.00000000000000E-01   0.00000000000000E+00   0.00000000000000E+00   7.88628269685811E-15
      1.66290656893928E-18   7.88794560342705E-15   3.98561094019412E-15   0.00000000000000E+00  -5.24424264981257E-12
      0.00000000000000E+00   0.00000000000000E+00  -1.90554853511694E-18   5.24423094101409E-09   5.24423093910855E-09
     -1.68100037032887E-15  -2.21771747599451E+01  -2.21771747599399E+01   0.00000000000000E+00   0.00000000000000E+00
     -2.29944076759302E-17  -5.24423880405976E-09  -5.24423882705417E-09  -2.30461056986525E-15
      4.53543495198903E-01
      8.00000000000000E-01   8.00000000000000E-01   0.00000000000000E+00   0.00000000000000E+00   7.15350930617124E-15
      1.55722927984113E-17   7.16908159896965E-15   3.98367028801606E-15   0.00000000000000E+00  -8.20311270369025E-12
      0.00000000000000E+00   0.00000000000000E+00  -1.90338443267069E-18   8.20307998558402E-09   8.20307998368063E-09
     -1.66382523839737E-15  -2.26771747599451E+01  -2.26771747599369E+01   0.00000000000000E+00   0.00000000000000E+00
     -2.29949550364588E-17  -8.20308712976711E-09  -8.20308715276206E-09  -2.31984504961867E-15
      4.63543495198903E-01
      8.00000000000000E-01   8.00000000000000E-01   0.00000000000000E+00   0.00000000000000E+00   6.53179722025869E-15
     -2.09610360525975E-18   6.52970111665343E-15   3.98355663167554E-15   0.00000000000000E+00  -1.21574878641603E-11