DF-ISE text

Info {
  version   = 1.0
  type      = xyplot
  datasets  = [
    "time"
    "Ntop OuterVoltage" "Ntop InnerVoltage" "Ntop QuasiFermiPotential" "Ntop DisplacementCurrent" "Ntop eCurrent"
    "Ntop hCurrent" "Ntop TotalCurrent" "Ntop Charge" "Ptop OuterVoltage" "Ptop InnerVoltage"
    "Ptop QuasiFermiPotential" "Ptop DisplacementCurrent" "Ptop eCurrent" "Ptop hCurrent" "Ptop TotalCurrent"
    "Ptop Charge" "Pbot OuterVoltage" "Pbot InnerVoltage" "Pbot QuasiFermiPotential" "Pbot DisplacementCurrent"
    "Pbot eCurrent" "Pbot hCurrent" "Pbot TotalCurrent" "Pbot Charge" ]
  functions = [
    Time
    OuterVoltage InnerVoltage QuasiFermiPotential DisplacementCurrent eCurrent
    hCurrent TotalCurrent Charge OuterVoltage InnerVoltage
    QuasiFermiPotential DisplacementCurrent eCurrent hCurrent TotalCurrent
    Charge OuterVoltage InnerVoltage QuasiFermiPotential DisplacementCurrent
    eCurrent hCurrent TotalCurrent Charge ]
}

Data {
      1.00000000000000E-03
      8.00000000000000E-01   8.00000000000000E-01   0.00000000000000E+00   0.00000000000000E+00   5.50171486185014E-15
      1.14642720461665E-19   5.50182950457060E-15   9.80291432059596E-15   0.00000000000000E+00   0.00000000000000E+00
      0.00000000000000E+00   0.00000000000000E+00  -1.87704043522610E-18  -7.79519260959785E-16  -7.81396301395011E-16
     -7.88814727981833E-15  -5.00000000000000E-02  -5.00000000000000E-02   0.00000000000000E+00   0.00000000000000E+00
     -2.29808638242328E-17  -4.69745233935136E-15  -4.72043320317559E-15  -1.91476704077763E-15
      2.91111111111111E-03
      8.00000000000000E-01   8.00000000000000E-01   0.00000000000000E+00   0.00000000000000E+00   5.81777540138276E-15
     -2.05734006138144E-19   5.81756966737662E-15   9.80380101069543E-15   0.00000000000000E+00   0.00000000000000E+00
      0.00000000000000E+00   0.00000000000000E+00  -1.87704043471697E-18  -7.78261464717567E-16  -7.80138505152284E-16
     -7.88814562691228E-15  -1.45555555555556E-01  -1.45555555555555E-01   0.00000000000000E+00   0.00000000000000E+00
     -2.29808936216405E-17  -5.01445026860271E-15  -5.03743116222435E-15  -1.91565538378313E-15
      6.56345679012346E-03
      8.00000000000000E-01   8.00000000000000E-01   0.00000000000000E+00   0.00000000000000E+00   6.38238699100470E-15
      7.32282804371380E-19   6.38311927380907E-15   9.80549157645173E-15   0.00000000000000E+00   0.00000000000000E+00
      0.00000000000000E+00   0.00000000000000E+00  -1.87704043328111E-18  -7.76075543938631E-16  -7.77952584371912E-16
     -7.88814050535302E-15  -3.28172839506173E-01  -3.28172839506173E-01   0.00000000000000E+00   0.00000000000000E+00
     -2.29809505198540E-17  -5.58218573891730E-15  -5.60516668943716E-15  -1.91735107109869E-15
      1.35434951989026E-02
      8.00000000000000E-01   8.00000000000000E-01   0.00000000000000E+00   0.00000000000000E+00   7.35371207613859E-15
     -1.83473184532712E-19   7.35352860295406E-15   9.80870187578337E-15   0.00000000000000E+00   0.00000000000000E+00
      0.00000000000000E+00   0.00000000000000E+00  -1.87704042690173E-18  -7.72571904826882E-16  -7.74448945253784E-16
     -7.88811703273187E-15  -6.77174759945130E-01  -6.77174759945130E-01   0.00000000000000E+00   0.00000000000000E+00
     -2.29810590976354E-17  -6.55609859860263E-15  -6.57907965770027E-15  -1.92058484305154E-15
      2.35434951989026E-02
      8.00000000000000E-01   8.00000000000000E-01   0.00000000000000E+00   0.00000000000000E+00   8.56908270131065E-15
     -1.67881199184853E-18   8.56740388931880E-15   9.81320727904033E-15   0.00000000000000E+00   0.00000000000000E+00
      0.00000000000000E+00   0.00000000000000E+00  -1.87704039472855E-18  -7.68975653568987E-16  -7.70852693963716E-16
     -7.88800026285796E-15  -1.17717475994513E+00  -1.17717475994513E+00   0.00000000000000E+00   0.00000000000000E+00
     -2.29812144408280E-17  -7.77356998091425E-15  -7.79655119535508E-15  -1.92520701618237E-15
      3.35434951989026E-02
      8.00000000000000E-01   8.00000000000000E-01   0.00000000000000E+00   0.00000000000000E+00   9.61968480258985E-15
     -1.31390016642564E-18   9.61837090242343E-15   9.81743059723419E-15   0.00000000000000E+00   0.00000000000000E+00
      0.00000000000000E+00   0.00000000000000E+00  -1.87704028381771E-18  -7.67168588074257E-16  -7.69045628358075E-16
     -7.88759854272570E-15  -1.67717475994513E+00  -1.67717475994513E+00   0.00000000000000E+00   0.00000000000000E+00
     -2.29813700444424E-17  -8.82634390402091E-15  -8.84932527406536E-15  -1.92983205450851E-15
      4.35434951989026E-02
      8.00000000000000E-01   8.00000000000000E-01   0.00000000000000E+00   0.00000000000000E+00   1.04932661369722E-14
     -9.61124678540903E-19   1.04923050122936E-14   9.82099518847073E-15   0.00000000000000E+00   0.00000000000000E+00
      0.00000000000000E+00   0.00000000000000E+00  -1.87703997681221E-18  -7.67769766267990E-16  -7.69646806244803E-16
     -7.88648647813562E-15  -2.17717475994513E+00  -2.17717475994513E+00   0.00000000000000E+00   0.00000000000000E+00
     -2.29815275437935E-17  -9.69967667850504E-15  -9.72265820604884E-15  -1.93450871033510E-15
      5.35434951989026E-02
      8.00000000000000E-01   8.00000000000000E-01   0.00000000000000E+00   0.00000000000000E+00   1.11567528369503E-14
     -5.75968181344779E-19   1.11561768687689E-14   9.82330216978640E-15   0.00000000000000E+00   0.00000000000000E+00
      0.00000000000000E+00   0.00000000000000E+00  -1.87703929364311E-18  -7.72133522199247E-16  -7.74010561492890E-16
     -7.88399785699458E-15  -2.67717475994513E+00  -2.67717475994513E+00   0.00000000000000E+00   0.00000000000000E+00
     -2.29816892094267E-17  -1.03591846180666E-14  -1.03821663072761E-14  -1.93930431279180E-15
      6.35434951989026E-02
      8.00000000000000E-01   8.00000000000000E-01   0.00000000000000E+00   0.00000000000000E+00   1.17002378198384E-14
     -2.36443693188218E-18   1.16978733829065E-14   9.82367163790329E-15   0.00000000000000E+00   0.00000000000000E+00
      0.00000000000000E+00   0.00000000000000E+00  -1.87703805418876E-18  -7.82246046950043E-16  -7.84123085004232E-16
     -7.87941086885569E-15  -3.17717475994513E+00  -3.17717475994513E+00   0.00000000000000E+00   0.00000000000000E+00
     -2.29818564636962E-17  -1.08907684414386E-14  -1.09137502979023E-14  -1.94426076904765E-15
      7.35434951989026E-02
      8.00000000000000E-01   8.00000000000000E-01   0.00000000000000E+00   0.00000000000000E+00   1.21442415337987E-14
      9.92608608263510E-19   1.21452341424070E-14   9.82183603210625E-15   0.00000000000000E+00   0.00000000000000E+00
      0.00000000000000E+00   0.00000000000000E+00  -1.87703621981660E-18  -8.00499698776502E-16  -8.02376734996318E-16
     -7.87242757501044E-15  -3.67717475994513E+00  -3.67717475994513E+00   0.00000000000000E+00   0.00000000000000E+00
     -2.29820303457243E-17  -1.13198753770650E-14  -1.13428574074107E-14  -1.94940845709583E-15
      8.35434951989026E-02
      8.00000000000000E-01   8.00000000000000E-01   0.00000000000000E+00   0.00000000000000E+00   1.24921150002491E-14
     -2.66350079582530E-18   1.24894514994533E-14   9.81813931205430E-15   0.00000000000000E+00   0.00000000000000E+00
      0.00000000000000E+00   0.00000000000000E+00  -1.87703392683276E-18  -8.28286815901516E-16  -8.30163849828349E-16
     -7.86336716574893E-15  -4.17717475994513E+00  -4.17717475994513E+00   0.00000000000000E+00   0.00000000000000E+00
     -2.29822117097596E-17  -1.16363054379152E-14  -1.16592876496250E-14  -1.95477214630536E-15
      9.35434951989026E-02
      8.00000000000000E-01   8.00000000000000E-01   0.00000000000000E+00   0.00000000000000E+00   1.27585970311544E-14
     -4.58674295863996E-19   1.27581383568585E-14   9.81312124277551E-15   0.00000000000000E+00   0.00000000000000E+00
      0.00000000000000E+00   0.00000000000000E+00  -1.87703134432547E-18  -8.62008161912163E-16  -8.63885193256489E-16
     -7.85275273214022E-15  -4.67717475994513E+00  -4.67717475994513E+00   0.00000000000000E+00   0.00000000000000E+00
     -2.29824011401158E-17  -1.18712707624619E-14  -1.18942531636020E-14  -1.96036851063534E-15
      1.03543495198903E-01
      8.00000000000000E-01   8.00000000000000E-01   0.00000000000000E+00   0.00000000000000E+00   1.29544871003147E-14
      2.08432630636711E-19   1.29546955329453E-14   9.80717427398076E-15   0.00000000000000E+00   0.00000000000000E+00
      0.00000000000000E+00   0.00000000000000E+00  -1.87702857862680E-18  -8.91049712780725E-16  -8.92926741359352E-16
     -7.84096851842883E-15  -5.17717475994513E+00  -5.17717475994513E+00   0.00000000000000E+00   0.00000000000000E+00
     -2.29825989372266E-17  -1.20387861926487E-14  -1.20617687915860E-14  -1.96620575555194E-15
      1.13543495198903E-01
      8.00000000000000E-01   8.00000000000000E-01   0.00000000000000E+00   0.00000000000000E+00   1.30917366227134E-14
     -1.42815557216457E-18   1.30903084671412E-14   9.80052438658972E-15   0.00000000000000E+00   0.00000000000000E+00
      0.00000000000000E+00   0.00000000000000E+00  -1.87702568743195E-18  -9.08017171889869E-16  -9.09894197577301E-16
     -7.82823781402202E-15  -5.67717475994513E+00  -5.67717475994513E+00   0.00000000000000E+00   0.00000000000000E+00
     -2.29828052164766E-17  -1.21574314643475E-14  -1.21804142695639E-14  -1.97228657256770E-15
      1.23543495198903E-01
      8.00000000000000E-01   8.00000000000000E-01   0.00000000000000E+00   0.00000000000000E+00   1.31895328118940E-14
      9.61881955096308E-19   1.31904946938491E-14   9.79329799680123E-15   0.00000000000000E+00   0.00000000000000E+00
      0.00000000000000E+00   0.00000000000000E+00  -1.87702269993300E-18  -9.14920093931464E-16  -9.16797116631397E-16
     -7.81468719216357E-15  -6.17717475994513E+00  -6.17717475994513E+00   0.00000000000000E+00   0.00000000000000E+00
     -2.29830199977778E-17  -1.22507145572199E-14  -1.22736975772177E-14  -1.97861080463769E-15
      1.33543495198903E-01
      8.00000000000000E-01   8.00000000000000E-01   0.00000000000000E+00   0.00000000000000E+00   1.32637759013071E-14
      1.13794736444850E-17   1.32751553749516E-14   9.78556837293514E-15   0.00000000000000E+00   0.00000000000000E+00
      0.00000000000000E+00   0.00000000000000E+00  -1.87701963221613E-18  -9.15908538024214E-16  -9.17785557656430E-16
     -7.80039147026855E-15  -6.67717475994513E+00  -6.67717475994513E+00   0.00000000000000E+00   0.00000000000000E+00
     -2.29832432545768E-17  -1.23343865740406E-14  -1.23573698172952E-14  -1.98517690266658E-15
      1.43543495198903E-01
      8.00000000000000E-01   8.00000000000000E-01   0.00000000000000E+00   0.00000000000000E+00   1.33235005791550E-14
     -7.67115320479553E-18   1.33158294259502E-14   9.77737906238194E-15   0.00000000000000E+00   0.00000000000000E+00
      0.00000000000000E+00   0.00000000000000E+00  -1.87701649474585E-18  -9.13519051218497E-16  -9.15396067713242E-16
     -7.78539643753607E-15  -7.17717475994513E+00  -7.17717475994513E+00   0.00000000000000E+00   0.00000000000000E+00
     -2.29834749373864E-17  -1.23774498832996E-14  -1.24004333582370E-14  -1.99198262484586E-15
      1.53543495198903E-01
      8.00000000000000E-01   8.00000000000000E-01   0.00000000000000E+00   0.00000000000000E+00   1.33732954584004E-14
      1.50207932086569E-17   1.33883162516091E-14   9.76875498950778E-15   0.00000000000000E+00   0.00000000000000E+00
      0.00000000000000E+00   0.00000000000000E+00  -1.87701329476149E-18  -9.09009319652376E-16  -9.10886332947137E-16
     -7.76972962058192E-15  -7.67717475994513E+00  -7.67717475994513E+00   0.00000000000000E+00   0.00000000000000E+00
     -2.29837149849593E-17  -1.24544462036770E-14  -1.24774299186620E-14  -1.99902536892587E-15
      1.63543495198903E-01
      8.00000000000000E-01   8.00000000000000E-01   0.00000000000000E+00   0.00000000000000E+00   1.34156320725839E-14
      1.20136039801667E-18   1.34168334329819E-14   9.75970747126751E-15   0.00000000000000E+00   0.00000000000000E+00
      0.00000000000000E+00   0.00000000000000E+00  -1.87701003676574E-18  -9.02938763647204E-16  -9.04815773683969E-16
     -7.75340514353606E-15  -8.17717475994513E+00  -8.17717475994513E+00   0.00000000000000E+00   0.00000000000000E+00
     -2.29839633294903E-17  -1.24890336959685E-14  -1.25120176592980E-14  -2.00630232773144E-15
      1.73543495198903E-01
      8.00000000000000E-01   8.00000000000000E-01   0.00000000000000E+00   0.00000000000000E+00   1.34520745806922E-14
      1.99144196573399E-17   1.34719890003496E-14   9.75023583295466E-15   0.00000000000000E+00   0.00000000000000E+00
      0.00000000000000E+00   0.00000000000000E+00  -1.87700672507341E-18  -8.95648473132071E-16  -8.97525479857145E-16
     -7.73642528704151E-15  -8.67717475994513E+00  -8.67717475994513E+00   0.00000000000000E+00   0.00000000000000E+00
     -2.29842198984956E-17  -1.25514793005939E-14  -1.25744635204924E-14  -2.01381054591315E-15
      1.83543495198903E-01
      8.00000000000000E-01   8.00000000000000E-01   0.00000000000000E+00   0.00000000000000E+00   1.34837276603780E-14
     -1.09758242566562E-17   1.34727518361213E-14   9.74032651623941E-15   0.00000000000000E+00   0.00000000000000E+00
      0.00000000000000E+00   0.00000000000000E+00  -1.87700336201748E-18  -8.87239006104828E-16  -8.89116009466845E-16
     -7.71877961235954E-15  -9.17717475994513E+00  -9.17717475994513E+00   0.00000000000000E+00   0.00000000000000E+00
     -2.29844846141878E-17  -1.25606513420403E-14  -1.25836358266545E-14  -2.02154690387986E-15
      1.93543495198903E-01
      8.00000000000000E-01   8.00000000000000E-01   0.00000000000000E+00   0.00000000000000E+00   1.35115567853263E-14
      1.55975258277432E-17   1.35271543111540E-14   9.72994976894952E-15   0.00000000000000E+00   0.00000000000000E+00
      0.00000000000000E+00   0.00000000000000E+00  -1.87699994782290E-18  -8.77759500567710E-16  -8.79636500515533E-16
     -7.70044173495220E-15  -9.67717475994513E+00  -9.67717475994513E+00   0.00000000000000E+00   0.00000000000000E+00
     -2.29847573905514E-17  -1.26245330532480E-14  -1.26475178106385E-14  -2.02950803399735E-15
      2.03543495198903E-01
      8.00000000000000E-01   8.00000000000000E-01   0.00000000000000E+00   0.00000000000000E+00   1.35365867220620E-14
      1.48534159347240E-18   1.35380720636554E-14   9.71905401515391E-15   0.00000000000000E+00   0.00000000000000E+00
      0.00000000000000E+00   0.00000000000000E+00  -1.87699648423725E-18  -8.67022100276867E-16  -8.68899096761105E-16
     -7.68136383780701E-15  -1.01771747599451E+01  -1.01771747599451E+01   0.00000000000000E+00   0.00000000000000E+00
     -2.29850381283206E-17  -1.26461879287660E-14  -1.26691729668943E-14  -2.03769017734694E-15
      2.13543495198903E-01
      8.00000000000000E-01   8.00000000000000E-01   0.00000000000000E+00   0.00000000000000E+00   1.35597974813117E-14
     -6.78775880574009E-18   1.35530097225059E-14   9.70756007187196E-15   0.00000000000000E+00   0.00000000000000E+00
      0.00000000000000E+00   0.00000000000000E+00  -1.87699296858282E-18  -8.54229327220027E-16  -8.56106320188609E-16
     -7.66147102401452E-15  -1.06771747599451E+01  -1.06771747599451E+01   0.00000000000000E+00   0.00000000000000E+00
     -2.29853267101884E-17  -1.26739180756072E-14  -1.26969034023174E-14  -2.04608904785746E-15
      2.23543495198903E-01
      8.00000000000000E-01   8.00000000000000E-01   0.00000000000000E+00   0.00000000000000E+00   1.35818902392981E-14
     -5.70048365275775E-18   1.35761897556454E-14   9.69536583890915E-15   0.00000000000000E+00   0.00000000000000E+00
      0.00000000000000E+00   0.00000000000000E+00  -1.87698939832296E-18  -8.36103756570036E-16  -8.37980745968359E-16
     -7.64066584482505E-15  -1.11771747599451E+01  -1.11771747599451E+01   0.00000000000000E+00   0.00000000000000E+00
     -2.29856230062043E-17  -1.27152233866708E-14  -1.27382090096770E-14  -2.05469999408416E-15
      2.33543495198903E-01
      8.00000000000000E-01   8.00000000000000E-01   0.00000000000000E+00   0.00000000000000E+00   1.36033348077676E-14
     -5.31770037595641E-20   1.36032816307639E-14   9.68239043760823E-15   0.00000000000000E+00   0.00000000000000E+00
      0.00000000000000E+00   0.00000000000000E+00  -1.87698577380389E-18  -8.00696091922438E-16  -8.02573077696242E-16
     -7.61887122821074E-15  -1.16771747599451E+01  -1.16771747599451E+01   0.00000000000000E+00   0.00000000000000E+00
     -2.29859269153761E-17  -1.27777226261522E-14  -1.28007085530676E-14  -2.06351920939747E-15
      2.43543495198903E-01
      8.00000000000000E-01   8.00000000000000E-01   0.00000000000000E+00   0.00000000000000E+00   1.36242431510963E-14
      2.03654078966196E-17   1.36446085589929E-14   9.66867762337753E-15   0.00000000000000E+00   0.00000000000000E+00
      0.00000000000000E+00   0.00000000000000E+00  -1.87698210172984E-18  -7.05568935229174E-16  -7.07445917330904E-16
     -7.59613119289951E-15  -1.21771747599451E+01  -1.21771747599451E+01   0.00000000000000E+00   0.00000000000000E+00
     -2.29862384590428E-17  -1.29141764032030E-14  -1.29371626416620E-14  -2.07254643047807E-15
      2.53543495198903E-01
      8.00000000000000E-01   8.00000000000000E-01   0.00000000000000E+00   0.00000000000000E+00   1.36442491806491E-14
      5.56604604308023E-18   1.36498152266922E-14   9.65445694055641E-15   0.00000000000000E+00   0.00000000000000E+00
      0.00000000000000E+00   0.00000000000000E+00  -1.87697839840288E-18  -4.04117553554202E-16  -4.05994531952605E-16
     -7.57267056372810E-15  -1.26771747599451E+01  -1.26771747599451E+01   0.00000000000000E+00   0.00000000000000E+00
     -2.29865578315793E-17  -1.32208341369080E-14  -1.32438206947396E-14  -2.08178637682830E-15
      2.63543495198903E-01
      8.00000000000000E-01   8.00000000000000E-01   0.00000000000000E+00   0.00000000000000E+00   1.36627299113886E-14
     -9.63451851851197E-18   1.36530953928701E-14   9.64002756007431E-15   0.00000000000000E+00   0.00000000000000E+00
      0.00000000000000E+00   0.00000000000000E+00  -1.87697468237551E-18   5.92551805654942E-16   5.90674830972567E-16
     -7.54878201937135E-15  -1.31771747599451E+01  -1.31771747599451E+01   0.00000000000000E+00   0.00000000000000E+00
     -2.29868852905374E-17  -1.42207833385521E-14  -1.42437702238427E-14  -2.09124554070298E-15
      2.73543495198903E-01
      8.00000000000000E-01   8.00000000000000E-01   0.00000000000000E+00   0.00000000000000E+00   1.36790788645237E-14
     -4.72802634553463E-19   1.36786060618892E-14   9.62560915279487E-15   0.00000000000000E+00   0.00000000000000E+00
      0.00000000000000E+00   0.00000000000000E+00  -1.87697096466486E-18   3.85476750885516E-15   3.85289053789049E-15
     -7.52468087172127E-15  -1.36771747599451E+01  -1.36771747599451E+01   0.00000000000000E+00   0.00000000000000E+00
     -2.29872210216498E-17  -1.75085093787581E-14  -1.75314965997797E-14  -2.10092828107359E-15
      2.83543495198903E-01
      8.00000000000000E-01   8.00000000000000E-01   0.00000000000000E+00   0.00000000000000E+00   1.36927192087482E-14
      7.26055148460506E-18   1.36999797602328E-14   9.61131874813382E-15   0.00000000000000E+00   0.00000000000000E+00
      0.00000000000000E+00   0.00000000000000E+00  -1.87696720599288E-18   1.42408806812073E-14   1.42390037140013E-14
     -7.50048247716943E-15  -1.41771747599451E+01  -1.41771747599451E+01   0.00000000000000E+00   0.00000000000000E+00
     -2.29875651190964E-17  -2.79159959091150E-14  -2.79389834742341E-14  -2.11083627096441E-15
      2.93543495198903E-01
      8.00000000000000E-01   8.00000000000000E-01   0.00000000000000E+00   0.00000000000000E+00   1.37030043465287E-14
      1.26531902842964E-17   1.37156575368130E-14   9.59721108256973E-15   0.00000000000000E+00  -9.18447372075268E-17
      0.00000000000000E+00   0.00000000000000E+00  -1.87696346086405E-18   4.62164084661422E-14   4.62145315026813E-14
     -7.47624151767487E-15  -1.46771747599451E+01  -1.46771747599451E+01   0.00000000000000E+00   0.00000000000000E+00
     -2.29879176219497E-17  -5.99072011218723E-14  -5.99301890394942E-14  -2.12096956489490E-15
      3.03543495198903E-01
      8.00000000000000E-01   8.00000000000000E-01   0.00000000000000E+00   0.00000000000000E+00   1.37091350956817E-14
     -1.42793875826842E-17   1.36948557080990E-14   9.58331233976224E-15   0.00000000000000E+00  -1.83689474415054E-16
      0.00000000000000E+00   0.00000000000000E+00  -1.87695925960702E-18   1.41193820325727E-13   1.41191943366468E-13
     -7.45198486651708E-15  -1.51771747599451E+01  -1.51771747599451E+01   0.00000000000000E+00   0.00000000000000E+00
     -2.29882785442104E-17  -1.54863810796023E-13  -1.54886799074567E-13  -2.13132747324516E-15
      3.13543495198903E-01
      8.00000000000000E-01   8.00000000000000E-01   0.00000000000000E+00   0.00000000000000E+00   1.37099487013592E-14
     -1.66310370951803E-17   1.36933176642640E-14   9.56963758654210E-15   0.00000000000000E+00  -3.67378948830107E-16
      0.00000000000000E+00   0.00000000000000E+00  -1.87695493530082E-18   4.13045810127326E-13   4.13043933172391E-13
     -7.42772856480898E-15  -1.56771747599451E+01  -1.56771747599451E+01   0.00000000000000E+00   0.00000000000000E+00
     -2.29886478906587E-17  -4.26714262188765E-13  -4.26737250836655E-13  -2.14190902173314E-15
      3.23543495198903E-01
      8.00000000000000E-01   8.00000000000000E-01   0.00000000000000E+00   0.00000000000000E+00   1.37031679859704E-14
      1.07630811939970E-17   1.37139310671644E-14   9.55619899353121E-15   0.00000000000000E+00  -1.19398158369785E-15
      0.00000000000000E+00   0.00000000000000E+00  -1.87694785178174E-18   1.16214486473493E-12   1.16214298778708E-12
     -7.40348578670461E-15  -1.61771747599451E+01  -1.61771747599451E+01   0.00000000000000E+00   0.00000000000000E+00
     -2.29890256657126E-17  -1.17583392982857E-12  -1.17585691885424E-12  -2.15271320682658E-15
      3.33543495198903E-01
      8.00000000000000E-01   8.00000000000000E-01   0.00000000000000E+00   0.00000000000000E+00   1.36835386597530E-14
      3.82175562952681E-17   1.37217562160483E-14   9.54301031711983E-15   0.00000000000000E+00  -3.12272106505591E-15
      0.00000000000000E+00   0.00000000000000E+00  -1.87693299957197E-18   3.14736489461365E-12   3.14736301768065E-12
     -7.37927108293933E-15  -1.66771747599451E+01  -1.66771747599451E+01   0.00000000000000E+00   0.00000000000000E+00
     -2.29894118818150E-17  -3.16106178448482E-12  -3.16108477389670E-12  -2.16373923418048E-15
      3.43543495198903E-01
      8.00000000000000E-01   8.00000000000000E-01   0.00000000000000E+00   0.00000000000000E+00   1.36391066438854E-14
      3.95299228878608E-18   1.36430596361742E-14   9.53009048476840E-15   0.00000000000000E+00  -8.17418161146988E-15
      0.00000000000000E+00   0.00000000000000E+00  -1.87689580441191E-18   8.20122021356528E-12   8.20121833666948E-12
     -7.35510357841052E-15  -1.71771747599451E+01  -1.71771747599451E+01   0.00000000000000E+00   0.00000000000000E+00
     -2.29898065732096E-17  -8.21483840649909E-12  -8.21486139630567E-12  -2.17498690635791E-15
      3.53543495198903E-01
      8.00000000000000E-01   8.00000000000000E-01   0.00000000000000E+00   0.00000000000000E+00   1.35447398332398E-14
      1.43060301482835E-17   1.35590458633881E-14   9.51746791080777E-15   0.00000000000000E+00  -2.05732211344860E-14
      0.00000000000000E+00   0.00000000000000E+00  -1.87679987861496E-18   2.05410942746499E-11   2.05410923978501E-11
     -7.33101053037982E-15  -1.76771747599451E+01  -1.76771747599451E+01   0.00000000000000E+00   0.00000000000000E+00
     -2.29902098229917E-17  -2.05546284535035E-11  -2.05546514437134E-11  -2.18645738042791E-15
      3.63543495198903E-01
      8.00000000000000E-01   8.00000000000000E-01   0.00000000000000E+00   0.00000000000000E+00   1.33534093289183E-14
     -1.04237568881350E-18   1.33523669532295E-14   9.50518681957181E-15   0.00000000000000E+00  -4.94124686176494E-14
      0.00000000000000E+00   0.00000000000000E+00  -1.87656431704351E-18   4.93786584120595E-11   4.93786565354952E-11
     -7.30703218456534E-15  -1.81771747599451E+01  -1.81771747599451E+01   0.00000000000000E+00   0.00000000000000E+00
     -2.29906218156806E-17  -4.93919859118267E-11  -4.93920089024485E-11  -2.19815463500648E-15
      3.73543495198903E-01
      8.00000000000000E-01   8.00000000000000E-01   0.00000000000000E+00   0.00000000000000E+00   1.29924944232643E-14
     -7.29178368370585E-18   1.29852026395806E-14   9.49331669403556E-15   0.00000000000000E+00  -1.13703784662918E-13
      0.00000000000000E+00   0.00000000000000E+00  -1.87603954710159E-18   1.13691189312786E-10   1.13691187436746E-10
     -7.28322857631458E-15  -1.86771747599451E+01  -1.86771747599450E+01   0.00000000000000E+00   0.00000000000000E+00
     -2.29910429324406E-17  -1.13704149648343E-10  -1.13704172639386E-10  -2.21008811772100E-15
      3.83543495198903E-01
      8.00000000000000E-01   8.00000000000000E-01   0.00000000000000E+00   0.00000000000000E+00   1.23849816172916E-14
     -1.14179855289146E-17   1.23735636317626E-14   9.48196523725569E-15   0.00000000000000E+00  -2.50001374678888E-13
      0.00000000000000E+00   0.00000000000000E+00  -1.87502456961743E-18   2.50012731832450E-10   2.50012729957425E-10
     -7.25968820957045E-15  -1.91771747599451E+01  -1.91771747599449E+01   0.00000000000000E+00   0.00000000000000E+00
     -2.29914739057752E-17  -2.50025080529585E-10  -2.50025103521059E-10  -2.22227702768522E-15
      3.93543495198903E-01
      8.00000000000000E-01   8.00000000000000E-01   0.00000000000000E+00   0.00000000000000E+00   1.15088081242321E-14
      5.19378025878777E-19   1.15093275022580E-14   9.47129289802945E-15   0.00000000000000E+00  -5.23239467871280E-13
      0.00000000000000E+00   0.00000000000000E+00  -1.87337762613143E-18   5.23195577810501E-10   5.23195575937124E-10
     -7.23653672626019E-15  -1.96771747599451E+01  -1.96771747599446E+01   0.00000000000000E+00   0.00000000000000E+00
     -2.29919160324028E-17  -5.23207062272709E-10  -5.23207085264625E-10  -2.23475617176931E-15
      4.03543495198903E-01
      8.00000000000000E-01   8.00000000000000E-01   0.00000000000000E+00   0.00000000000000E+00   1.04446089183586E-14
      1.77731435128309E-17   1.04623820618714E-14   9.46152241451650E-15   0.00000000000000E+00  -1.03747815149622E-12
      0.00000000000000E+00   0.00000000000000E+00  -1.87115295957101E-18   1.03749021089104E-09   1.03749020901989E-09
     -7.21394052388889E-15  -2.01771747599451E+01  -2.01771747599441E+01   0.00000000000000E+00   0.00000000000000E+00
     -2.29923713914166E-17  -1.03750064840958E-09  -1.03750067140196E-09  -2.24758189062766E-15
      4.13543495198903E-01
      8.00000000000000E-01   8.00000000000000E-01   0.00000000000000E+00   0.00000000000000E+00   9.33409744223573E-15
     -3.08966301410880E-17   9.30320081209464E-15   9.45293201104021E-15   0.00000000000000E+00  -1.94132221035549E-12
      0.00000000000000E+00   0.00000000000000E+00  -1.86857461029055E-18   1.94135326265930E-09   1.94135326079073E-09
     -7.19209759664290E-15  -2.06771747599451E+01  -2.06771747599432E+01   0.00000000000000E+00   0.00000000000000E+00
     -2.29928429374488E-17  -1.94136254099869E-09  -1.94136256399153E-09  -2.26083441439727E-15
      4.23543495198903E-01
      8.00000000000000E-01   8.00000000000000E-01   0.00000000000000E+00   0.00000000000000E+00   8.29457969764096E-15
     -2.72831921740527E-18   8.29185137842355E-15   9.44582267377900E-15   0.00000000000000E+00  -3.41772636096649E-12
      0.00000000000000E+00   0.00000000000000E+00  -1.86586781413795E-18   3.41772482027825E-09   3.41772481841238E-09
     -7.17121048365291E-15  -2.11771747599451E+01  -2.11771747599417E+01   0.00000000000000E+00   0.00000000000000E+00
     -2.29933343070809E-17  -3.41773308727043E-09  -3.41773311026377E-09  -2.27461219012615E-15
      4.33543495198903E-01
      8.00000000000000E-01   8.00000000000000E-01   0.00000000000000E+00   0.00000000000000E+00   7.38478582074617E-15
      6.90722650896671E-18   7.39169304725514E-15   9.44046440123699E-15   0.00000000000000E+00  -5.65754396724644E-12
      0.00000000000000E+00   0.00000000000000E+00  -1.86316035943706E-18   5.65752048313580E-09   5.65752048127264E-09
     -7.15144726934052E-15  -2.16771747599451E+01  -2.16771747599395E+01   0.00000000000000E+00   0.00000000000000E+00
     -2.29938492965970E-17  -5.65752784997189E-09  -5.65752787296573E-09  -2.28901713189646E-15
      4.43543495198903E-01
      8.00000000000000E-01   8.00000000000000E-01   0.00000000000000E+00   0.00000000000000E+00   6.61351294097747E-15
     -9.42303529938339E-19   6.61257063744753E-15   9.43704486295099E-15   0.00000000000000E+00  -8.82627924564332E-12
      0.00000000000000E+00   0.00000000000000E+00  -1.86048718465036E-18   8.82626354277872E-09   8.82626354091823E-09
     -7.13290845747449E-15  -2.21771747599451E+01  -2.21771747599363E+01   0.00000000000000E+00   0.00000000000000E+00
     -2.29943912084820E-17  -8.82627013049440E-09  -8.82627015348879E-09  -2.30413640547651E-15
      4.53543495198903E-01
      8.00000000000000E-01   8.00000000000000E-01   0.00000000000000E+00   0.00000000000000E+00   5.96023847304396E-15
      3.43902743295212E-17   5.99462874737348E-15   9.43564551010378E-15   0.00000000000000E+00  -1.30400239439874E-11
      0.00000000000000E+00   0.00000000000000E+00  -1.85782819391225E-18   1.30399893433355E-08   1.30399893414777E-08
     -7.11561594619459E-15  -2.26771747599451E+01  -2.26771747599321E+01   0.00000000000000E+00   0.00000000000000E+00
     -2.29949623827672E-17  -1.30399953131113E-08  -1.30399953361062E-08  -2.32002956390918E-15
      4.63543495198903E-01
      8.00000000000000E-01   8.00000000000000E-01   0.00000000000000E+00   0.00000000000000E+00   5.39770472166908E-15
      1.55719426328456E-17   5.41327666430192E-15   9.43625075724773E-15   0.00000000000000E+00  -1.83592118993614E-11