DF-ISE text

Info {
  version   = 1.0
  type      = xyplot
  datasets  = [
    "time"
    "Ntop OuterVoltage" "Ntop InnerVoltage" "Ntop QuasiFermiPotential" "Ntop DisplacementCurrent" "Ntop eCurrent"
    "Ntop hCurrent" "Ntop TotalCurrent" "Ntop Charge" "Ptop OuterVoltage" "Ptop InnerVoltage"
    "Ptop QuasiFermiPotential" "Ptop DisplacementCurrent" "Ptop eCurrent" "Ptop hCurrent" "Ptop TotalCurrent"
    "Ptop Charge" "Pbot OuterVoltage" "Pbot InnerVoltage" "Pbot QuasiFermiPotential" "Pbot DisplacementCurrent"
    "Pbot eCurrent" "Pbot hCurrent" "Pbot TotalCurrent" "Pbot Charge" ]
  functions = [
    Time
    OuterVoltage InnerVoltage QuasiFermiPotential DisplacementCurrent eCurrent
    hCurrent TotalCurrent Charge OuterVoltage InnerVoltage
    QuasiFermiPotential DisplacementCurrent eCurrent hCurrent TotalCurrent
    Charge OuterVoltage InnerVoltage QuasiFermiPotential DisplacementCurrent
    eCurrent hCurrent TotalCurrent Charge ]
}

Data {
      1.00000000000000E-03
      8.00000000000000E-01   8.00000000000000E-01   0.00000000000000E+00   0.00000000000000E+00   5.41869553767682E-15
     -1.63861619534485E-19   5.41853167605729E-15   3.43956864865886E-15   0.00000000000000E+00   0.00000000000000E+00
      0.00000000000000E+00   0.00000000000000E+00  -1.46195143387131E-18  -6.96261516516875E-16  -6.97723467950746E-16
     -1.52480158557776E-15  -5.00000000000000E-02  -5.00000000000000E-02   0.00000000000000E+00   0.00000000000000E+00
     -2.29808638249809E-17  -4.69782734428156E-15  -4.72080820810654E-15  -1.91476706308109E-15
      2.91111111111111E-03
      8.00000000000000E-01   8.00000000000000E-01   0.00000000000000E+00   0.00000000000000E+00   5.73485069167721E-15
      4.18407962161514E-19   5.73526909963937E-15   3.44045554830771E-15   0.00000000000000E+00   0.00000000000000E+00
      0.00000000000000E+00   0.00000000000000E+00  -1.56859411344350E-18  -6.95037118761102E-16  -6.96605712874545E-16
     -1.52480013224341E-15  -1.45555555555556E-01  -1.45555555555555E-01   0.00000000000000E+00   0.00000000000000E+00
     -2.29808936227233E-17  -5.01568249314211E-15  -5.03866338676483E-15  -1.91565541606430E-15
      6.56345679012346E-03
      8.00000000000000E-01   8.00000000000000E-01   0.00000000000000E+00   0.00000000000000E+00   6.29921458416654E-15
      6.01754932595388E-19   6.29981633909914E-15   3.44214676273385E-15   0.00000000000000E+00   0.00000000000000E+00
      0.00000000000000E+00   0.00000000000000E+00  -1.35810484057387E-18  -6.92905827498729E-16  -6.94263932339303E-16
     -1.52479562854538E-15  -3.28172839506173E-01  -3.28172839506173E-01   0.00000000000000E+00   0.00000000000000E+00
     -2.29809505219715E-17  -5.58257145623786E-15  -5.60555240675983E-15  -1.91735113418847E-15
      1.35434951989026E-02
      8.00000000000000E-01   8.00000000000000E-01   0.00000000000000E+00   0.00000000000000E+00   7.27038214826831E-15
     -9.83601588398251E-20   7.27028378810947E-15   3.44536003762974E-15   0.00000000000000E+00   0.00000000000000E+00
      0.00000000000000E+00   0.00000000000000E+00  -1.36873526334700E-18  -6.89513982935318E-16  -6.90882718198665E-16
     -1.52477499149214E-15  -6.77174759945130E-01  -6.77174759945130E-01   0.00000000000000E+00   0.00000000000000E+00
     -2.29810591044572E-17  -6.55642001080635E-15  -6.57940106991080E-15  -1.92058504613761E-15
      2.35434951989026E-02
      8.00000000000000E-01   8.00000000000000E-01   0.00000000000000E+00   0.00000000000000E+00   8.48560123528556E-15
      1.87858488615551E-18   8.48747982017171E-15   3.44988036459321E-15   0.00000000000000E+00   0.00000000000000E+00
      0.00000000000000E+00   0.00000000000000E+00  -2.01436081697174E-18  -6.86042674409605E-16  -6.88057035226577E-16
     -1.52467246536693E-15  -1.17717475994513E+00  -1.17717475994513E+00   0.00000000000000E+00   0.00000000000000E+00
     -2.29812144705216E-17  -7.77644157047461E-15  -7.79942278494513E-15  -1.92520789922629E-15
      3.35434951989026E-02
      8.00000000000000E-01   8.00000000000000E-01   0.00000000000000E+00   0.00000000000000E+00   9.53243402391258E-15
      1.44092369937016E-18   9.53387494761195E-15   3.45415615366180E-15   0.00000000000000E+00   0.00000000000000E+00
      0.00000000000000E+00   0.00000000000000E+00  -6.63614886134956E-19  -6.84239590115048E-16  -6.84903205001183E-16
     -1.52432103281315E-15  -1.67717475994513E+00  -1.67717475994513E+00   0.00000000000000E+00   0.00000000000000E+00
     -2.29813701476586E-17  -8.82599037246310E-15  -8.84897174261076E-15  -1.92983512084865E-15
      4.35434951989026E-02
      8.00000000000000E-01   8.00000000000000E-01   0.00000000000000E+00   0.00000000000000E+00   1.04028467708746E-14
     -2.16183882656184E-19   1.04026305869919E-14   3.45787162966625E-15   0.00000000000000E+00   0.00000000000000E+00
      0.00000000000000E+00   0.00000000000000E+00  -2.52909138715380E-18  -6.84611491664546E-16  -6.87140583051700E-16
     -1.52335455133818E-15  -2.17717475994513E+00  -2.17717475994513E+00   0.00000000000000E+00   0.00000000000000E+00
     -2.29815278257493E-17  -9.69250847611446E-15  -9.71549000394020E-15  -1.93451707832808E-15
      5.35434951989026E-02
      8.00000000000000E-01   8.00000000000000E-01   0.00000000000000E+00   0.00000000000000E+00   1.10577152722958E-14
     -3.86855914173407E-19   1.10573284163817E-14   3.46053248245509E-15   0.00000000000000E+00   0.00000000000000E+00
      0.00000000000000E+00   0.00000000000000E+00  -2.12428709798069E-18  -6.88210004785388E-16  -6.90334291883369E-16
     -1.52120935245080E-15  -2.67717475994513E+00  -2.67717475994513E+00   0.00000000000000E+00   0.00000000000000E+00
     -2.29816898440927E-17  -1.03440124346542E-14  -1.03669941244983E-14  -1.93932313000428E-15
      6.35434951989026E-02
      8.00000000000000E-01   8.00000000000000E-01   0.00000000000000E+00   0.00000000000000E+00   1.15864135920071E-14
      3.29106515882823E-18   1.15897046571659E-14   3.46157059313362E-15   0.00000000000000E+00   0.00000000000000E+00
      0.00000000000000E+00   0.00000000000000E+00  -7.56674733477815E-19  -6.96574133777103E-16  -6.97330808510581E-16
     -1.51727389534718E-15  -3.17717475994513E+00  -3.17717475994513E+00   0.00000000000000E+00   0.00000000000000E+00
     -2.29818576767101E-17  -1.08693919909787E-14  -1.08923738486554E-14  -1.94429669778645E-15
      7.35434951989026E-02
      8.00000000000000E-01   8.00000000000000E-01   0.00000000000000E+00   0.00000000000000E+00   1.20177257195899E-14
      8.96843021557277E-18   1.20266941498055E-14   3.46073128339508E-15   0.00000000000000E+00   0.00000000000000E+00
      0.00000000000000E+00   0.00000000000000E+00  -5.61697288419120E-19  -7.11679974877329E-16  -7.12241672165748E-16
     -1.51126353190484E-15  -3.67717475994513E+00  -3.67717475994513E+00   0.00000000000000E+00   0.00000000000000E+00
     -2.29820323496357E-17  -1.12914704452901E-14  -1.13144524776397E-14  -1.94946775149023E-15
      8.35434951989026E-02
      8.00000000000000E-01   8.00000000000000E-01   0.00000000000000E+00   0.00000000000000E+00   1.23577169689470E-14
      5.11468642831601E-19   1.23582284375898E-14   3.45826632523827E-15   0.00000000000000E+00   0.00000000000000E+00
      0.00000000000000E+00   0.00000000000000E+00  -2.62571637043774E-18  -7.34931352588325E-16  -7.37557068958763E-16
     -1.50340699524268E-15  -4.17717475994513E+00  -4.17717475994513E+00   0.00000000000000E+00   0.00000000000000E+00
     -2.29822146592788E-17  -1.15976891539718E-14  -1.16206713686311E-14  -1.95485932999559E-15
      9.35434951989026E-02
      8.00000000000000E-01   8.00000000000000E-01   0.00000000000000E+00   0.00000000000000E+00   1.26182317130226E-14
     -4.38681604021800E-19   1.26177930314185E-14   3.45464083701660E-15   0.00000000000000E+00   0.00000000000000E+00
      0.00000000000000E+00   0.00000000000000E+00  -1.62332939272914E-18  -7.64561486983985E-16  -7.66184816376714E-16
     -1.49415370333605E-15  -4.67717475994513E+00  -4.67717475994513E+00   0.00000000000000E+00   0.00000000000000E+00
     -2.29824051575451E-17  -1.18286258098843E-14  -1.18516082150418E-14  -1.96048713368055E-15
      1.03543495198903E-01
      8.00000000000000E-01   8.00000000000000E-01   0.00000000000000E+00   0.00000000000000E+00   1.28175750753699E-14
      7.79331027955908E-20   1.28176530084727E-14   3.45022533970364E-15   0.00000000000000E+00   0.00000000000000E+00
      0.00000000000000E+00   0.00000000000000E+00  -3.47726805949087E-18  -7.92630152521597E-16  -7.96107420581087E-16
     -1.48386590711275E-15  -5.17717475994513E+00  -5.17717475994513E+00   0.00000000000000E+00   0.00000000000000E+00
     -2.29826041475462E-17  -1.19985629837441E-14  -1.20215455878916E-14  -1.96635943259090E-15
      1.13543495198903E-01
      8.00000000000000E-01   8.00000000000000E-01   0.00000000000000E+00   0.00000000000000E+00   1.29601215691448E-14
     -8.82492683905429E-18   1.29512966423058E-14   3.44524752326203E-15   0.00000000000000E+00   0.00000000000000E+00
      0.00000000000000E+00   0.00000000000000E+00  -3.62840524485876E-18  -8.11013196493975E-16  -8.14641601738833E-16
     -1.47276817179887E-15  -5.67717475994513E+00  -5.67717475994513E+00   0.00000000000000E+00   0.00000000000000E+00
     -2.29828117598929E-17  -1.21136722288071E-14  -1.21366550405670E-14  -1.97247935146316E-15
      1.23543495198903E-01
      8.00000000000000E-01   8.00000000000000E-01   0.00000000000000E+00   0.00000000000000E+00   1.30601880507439E-14
      4.78316844817933E-18   1.30649712191921E-14   3.43984199705212E-15   0.00000000000000E+00   0.00000000000000E+00
      0.00000000000000E+00   0.00000000000000E+00  -1.31834111222668E-18  -8.19538697681305E-16  -8.20857038793532E-16
     -1.46099477368960E-15  -6.17717475994513E+00  -6.17717475994513E+00   0.00000000000000E+00   0.00000000000000E+00
     -2.29830280317509E-17  -1.22211311523668E-14  -1.22441141803986E-14  -1.97884722336252E-15
      1.33543495198903E-01
      8.00000000000000E-01   8.00000000000000E-01   0.00000000000000E+00   0.00000000000000E+00   1.31381960314611E-14
      2.46402193529339E-18   1.31406600533964E-14   3.43409228299869E-15   0.00000000000000E+00   0.00000000000000E+00
      0.00000000000000E+00   0.00000000000000E+00  -2.02118930831983E-18  -8.21696063244979E-16  -8.23717252553299E-16
     -1.44863029097901E-15  -6.67717475994513E+00  -6.67717475994513E+00   0.00000000000000E+00   0.00000000000000E+00
     -2.29832529540179E-17  -1.22939595478891E-14  -1.23169428008431E-14  -1.98546199201968E-15
      1.43543495198903E-01
      8.00000000000000E-01   8.00000000000000E-01   0.00000000000000E+00   0.00000000000000E+00   1.31996044249230E-14
      3.98380082999111E-18   1.32035882257530E-14   3.42805383970948E-15   0.00000000000000E+00   0.00000000000000E+00
      0.00000000000000E+00   0.00000000000000E+00  -1.86728595745489E-18  -8.20124696406728E-16  -8.21991982364183E-16
     -1.43573191464844E-15  -7.17717475994513E+00  -7.17717475994513E+00   0.00000000000000E+00   0.00000000000000E+00
     -2.29834864953388E-17  -1.23586127568935E-14  -1.23815962433888E-14  -1.99232192506104E-15
      1.53543495198903E-01
      8.00000000000000E-01   8.00000000000000E-01   0.00000000000000E+00   0.00000000000000E+00   1.32487765254660E-14
     -1.12448915054979E-18   1.32476520363155E-14   3.42176583520858E-15   0.00000000000000E+00   0.00000000000000E+00
      0.00000000000000E+00   0.00000000000000E+00  -3.10964137867515E-19  -8.16231435242233E-16  -8.16542399380101E-16
     -1.42234086228895E-15  -7.67717475994513E+00  -7.67717475994513E+00   0.00000000000000E+00   0.00000000000000E+00
     -2.29837286141879E-17  -1.24081259083212E-14  -1.24311096369354E-14  -1.99942497291963E-15
      1.63543495198903E-01
      8.00000000000000E-01   8.00000000000000E-01   0.00000000000000E+00   0.00000000000000E+00   1.32932730815768E-14
      6.79800691517736E-18   1.33000710884920E-14   3.41525738827678E-15   0.00000000000000E+00   0.00000000000000E+00
      0.00000000000000E+00   0.00000000000000E+00  -2.26378863567494E-18  -8.10723030859938E-16  -8.12986819495613E-16
     -1.40848843031151E-15  -8.17717475994513E+00  -8.17717475994513E+00   0.00000000000000E+00   0.00000000000000E+00
     -2.29839792652486E-17  -1.24641002897312E-14  -1.24870842689964E-14  -2.00676895796529E-15
      1.73543495198903E-01
      8.00000000000000E-01   8.00000000000000E-01   0.00000000000000E+00   0.00000000000000E+00   1.33291355240203E-14
      1.39196779528052E-18   1.33305274918155E-14   3.40855111656789E-15   0.00000000000000E+00   0.00000000000000E+00
      0.00000000000000E+00   0.00000000000000E+00  -2.05018144659364E-18  -8.03933540026963E-16  -8.05983721473557E-16
     -1.39419943684329E-15  -8.67717475994513E+00  -8.67717475994513E+00   0.00000000000000E+00   0.00000000000000E+00
     -2.29842384029559E-17  -1.25015595319391E-14  -1.25245437703420E-14  -2.01435167972460E-15
      1.83543495198903E-01
      8.00000000000000E-01   8.00000000000000E-01   0.00000000000000E+00   0.00000000000000E+00   1.33575403194567E-14
      1.39822090906207E-17   1.33715225285473E-14   3.40166529174687E-15   0.00000000000000E+00   0.00000000000000E+00
      0.00000000000000E+00   0.00000000000000E+00   4.48957265107504E-19  -7.96071582283703E-16  -7.95622625018596E-16
     -1.37949431726925E-15  -9.17717475994513E+00  -9.17717475994513E+00   0.00000000000000E+00   0.00000000000000E+00
     -2.29845059835147E-17  -1.25529153975452E-14  -1.25758999035287E-14  -2.02217097447762E-15
      1.93543495198903E-01
      8.00000000000000E-01   8.00000000000000E-01   0.00000000000000E+00   0.00000000000000E+00   1.33865297695812E-14
     -9.23088691849210E-18   1.33772988826627E-14   3.39461520930066E-15   0.00000000000000E+00   0.00000000000000E+00
      0.00000000000000E+00   0.00000000000000E+00  -1.80727361813984E-18  -7.87226541812317E-16  -7.89033815430457E-16
     -1.36439046224352E-15  -9.67717475994513E+00  -9.67717475994513E+00   0.00000000000000E+00   0.00000000000000E+00
     -2.29847819659773E-17  -1.25652802852663E-14  -1.25882650672323E-14  -2.03022474705714E-15
      2.03543495198903E-01
      8.00000000000000E-01   8.00000000000000E-01   0.00000000000000E+00   0.00000000000000E+00   1.34086379723200E-14
     -1.75199815174696E-17   1.33911179908025E-14   3.38741408395623E-15   0.00000000000000E+00   0.00000000000000E+00
      0.00000000000000E+00   0.00000000000000E+00  -5.03174850846263E-19  -7.77384230233022E-16  -7.77887405083868E-16
     -1.34890309926130E-15  -1.01771747599451E+01  -1.01771747599451E+01   0.00000000000000E+00   0.00000000000000E+00
     -2.29850663127197E-17  -1.25902455194060E-14  -1.26132305857187E-14  -2.03851098469494E-15
      2.13543495198903E-01
      8.00000000000000E-01   8.00000000000000E-01   0.00000000000000E+00   0.00000000000000E+00   1.34324159016865E-14
     -1.03190532294574E-17   1.34220968484570E-14   3.38007365112100E-15   0.00000000000000E+00   0.00000000000000E+00
      0.00000000000000E+00   0.00000000000000E+00  -3.41093288135516E-18  -7.66302864748371E-16  -7.69713797629726E-16
     -1.33304589147978E-15  -1.06771747599451E+01  -1.06771747599451E+01   0.00000000000000E+00   0.00000000000000E+00
     -2.29853589895259E-17  -1.26293976918377E-14  -1.26523830508273E-14  -2.04702775964122E-15
      2.23543495198903E-01
      8.00000000000000E-01   8.00000000000000E-01   0.00000000000000E+00   0.00000000000000E+00   1.34509712398132E-14
      1.26846254377563E-17   1.34636558652510E-14   3.37260458870249E-15   0.00000000000000E+00   0.00000000000000E+00
      0.00000000000000E+00   0.00000000000000E+00  -2.90661195318304E-18  -7.52948807323698E-16  -7.55855419276881E-16
     -1.31683136313129E-15  -1.11771747599451E+01  -1.11771747599451E+01   0.00000000000000E+00   0.00000000000000E+00
     -2.29856599654743E-17  -1.26848147860086E-14  -1.27078004459741E-14  -2.05577322557119E-15
      2.33543495198903E-01
      8.00000000000000E-01   8.00000000000000E-01   0.00000000000000E+00   0.00000000000000E+00   1.34687242261975E-14
      1.07409325218964E-18   1.34697983194497E-14   3.36501683301893E-15   0.00000000000000E+00   0.00000000000000E+00
      0.00000000000000E+00   0.00000000000000E+00  -2.90013252110429E-18  -7.33767438539066E-16  -7.36667571060171E-16
     -1.30027122168013E-15  -1.16771747599451E+01  -1.16771747599451E+01   0.00000000000000E+00   0.00000000000000E+00
     -2.29859692127219E-17  -1.27101447791768E-14  -1.27331307483895E-14  -2.06474561133880E-15
      2.43543495198903E-01
      8.00000000000000E-01   8.00000000000000E-01   0.00000000000000E+00   0.00000000000000E+00   1.34849774341436E-14
     -9.68813470479131E-18   1.34752892994388E-14   3.35731983502287E-15   0.00000000000000E+00   0.00000000000000E+00
      0.00000000000000E+00   0.00000000000000E+00  -2.39562247725919E-18  -6.97128383742945E-16  -6.99524006220205E-16
     -1.28337662067772E-15  -1.21771747599451E+01  -1.21771747599451E+01   0.00000000000000E+00   0.00000000000000E+00
     -2.29862867062845E-17  -1.27527790065123E-14  -1.27757652932186E-14  -2.07394321434516E-15
      2.53543495198903E-01
      8.00000000000000E-01   8.00000000000000E-01   0.00000000000000E+00   0.00000000000000E+00   1.35004147833861E-14
      1.26863166303187E-17   1.35131011000164E-14   3.34952278510542E-15   0.00000000000000E+00   0.00000000000000E+00
      0.00000000000000E+00   0.00000000000000E+00  -1.89325358175725E-18  -6.05760658827559E-16  -6.07653912409316E-16
     -1.26615839032466E-15  -1.26771747599451E+01  -1.26771747599451E+01   0.00000000000000E+00   0.00000000000000E+00
     -2.29866124238358E-17  -1.28824605751832E-14  -1.29054471876071E-14  -2.08336439478075E-15
      2.63543495198903E-01
      8.00000000000000E-01   8.00000000000000E-01   0.00000000000000E+00   0.00000000000000E+00   1.35165409997537E-14
     -3.20492061981817E-18   1.35133360791339E-14   3.34163482418126E-15   0.00000000000000E+00   0.00000000000000E+00
      0.00000000000000E+00   0.00000000000000E+00  -2.79246718866847E-18  -3.42454833772560E-16  -3.45247300961228E-16
     -1.24862725285127E-15  -1.31771747599451E+01  -1.31771747599451E+01   0.00000000000000E+00   0.00000000000000E+00
     -2.29869463455656E-17  -1.31451018318272E-14  -1.31680887781727E-14  -2.09300757132999E-15
      2.73543495198903E-01
      8.00000000000000E-01   8.00000000000000E-01   0.00000000000000E+00   0.00000000000000E+00   1.35287813920695E-14
     -6.88777839376925E-18   1.35218936136758E-14   3.33366525338427E-15   0.00000000000000E+00   0.00000000000000E+00
      0.00000000000000E+00   0.00000000000000E+00  -4.99723121453546E-19   4.53413922557406E-16   4.52914199435953E-16
     -1.23079403484494E-15  -1.36771747599451E+01  -1.36771747599451E+01   0.00000000000000E+00   0.00000000000000E+00
     -2.29872884540906E-17  -1.39518205246576E-14  -1.39748078131117E-14  -2.10287121853932E-15
      2.83543495198903E-01
      8.00000000000000E-01   8.00000000000000E-01   0.00000000000000E+00   0.00000000000000E+00   1.35444131758091E-14
      2.14175949701473E-19   1.35446273517588E-14   3.32562375275601E-15   0.00000000000000E+00   0.00000000000000E+00
      0.00000000000000E+00   0.00000000000000E+00  -2.35798491052474E-18   2.86406453704186E-15   2.86170655213134E-15
     -1.21266988687417E-15  -1.41771747599451E+01  -1.41771747599451E+01   0.00000000000000E+00   0.00000000000000E+00
     -2.29876387344245E-17  -1.63833462651558E-14  -1.64063339038902E-14  -2.11295386588185E-15
      2.93543495198903E-01
      8.00000000000000E-01   8.00000000000000E-01   0.00000000000000E+00   0.00000000000000E+00   1.35556508840102E-14
      7.83493697146182E-18   1.35634858209817E-14   3.31752061991433E-15   0.00000000000000E+00   0.00000000000000E+00
      0.00000000000000E+00   0.00000000000000E+00  -7.37142029964218E-19   1.00537481149236E-14   1.00530109728937E-14
     -1.19426652129281E-15  -1.46771747599451E+01  -1.46771747599451E+01   0.00000000000000E+00   0.00000000000000E+00
     -2.29879971740105E-17  -2.35935087967013E-14  -2.36164967938753E-14  -2.12325409862152E-15
      3.03543495198903E-01
      8.00000000000000E-01   8.00000000000000E-01   0.00000000000000E+00   0.00000000000000E+00   1.35692472951599E-14
     -5.14136886274738E-19   1.35687331582736E-14   3.30936704301871E-15   0.00000000000000E+00   0.00000000000000E+00
      0.00000000000000E+00   0.00000000000000E+00  -2.65792476323069E-18   3.10216931665990E-14   3.10190352418358E-14
     -1.17559648198018E-15  -1.51771747599451E+01  -1.51771747599451E+01   0.00000000000000E+00   0.00000000000000E+00
     -2.29883637628456E-17  -4.45647800363465E-14  -4.45877684001094E-14  -2.13377056103853E-15
      3.13543495198903E-01
      8.00000000000000E-01   8.00000000000000E-01   0.00000000000000E+00   0.00000000000000E+00   1.35775721609897E-14
     -3.12182467349288E-18   1.35744503363162E-14   3.30117542985467E-15   0.00000000000000E+00  -9.18447372075268E-17
      0.00000000000000E+00   0.00000000000000E+00  -9.38670366956542E-19   9.06206924665938E-14   9.06197537962269E-14
     -1.15667346596698E-15  -1.56771747599451E+01  -1.56771747599451E+01   0.00000000000000E+00   0.00000000000000E+00
     -2.29887384937435E-17  -1.04171215394049E-13  -1.04194204132543E-13  -2.14450196388770E-15
      3.23543495198903E-01
      8.00000000000000E-01   8.00000000000000E-01   0.00000000000000E+00   0.00000000000000E+00   1.35842171462049E-14
     -2.95235529623594E-17   1.35546935932426E-14   3.29295982976213E-15   0.00000000000000E+00  -2.75534211622580E-16
      0.00000000000000E+00   0.00000000000000E+00   1.40024392918981E-20   2.55377377712201E-13   2.55377391714640E-13
     -1.13751272859964E-15  -1.61771747599451E+01  -1.61771747599451E+01   0.00000000000000E+00   0.00000000000000E+00
     -2.29891213629332E-17  -2.68909096186520E-13  -2.68932085307883E-13  -2.15544710116249E-15
      3.33543495198903E-01
      8.00000000000000E-01   8.00000000000000E-01   0.00000000000000E+00   0.00000000000000E+00   1.35892123856265E-14
     -2.03908662201287E-17   1.35688215194063E-14   3.28473651354257E-15   0.00000000000000E+00  -7.34757897660214E-16
      0.00000000000000E+00   0.00000000000000E+00  -1.43278803790988E-18   6.97565012888961E-13   6.97563580100923E-13
     -1.11813162502463E-15  -1.66771747599451E+01  -1.66771747599451E+01   0.00000000000000E+00   0.00000000000000E+00
     -2.29895123714479E-17  -7.11109412107958E-13  -7.11132401620330E-13  -2.16660488851794E-15
      3.43543495198903E-01
      8.00000000000000E-01   8.00000000000000E-01   0.00000000000000E+00   0.00000000000000E+00   1.35872240224287E-14
     -1.51579440477119E-18   1.35857082280239E-14   3.27652482884596E-15   0.00000000000000E+00  -1.83689474415053E-15
      0.00000000000000E+00   0.00000000000000E+00  -3.28798903374834E-18   1.84781324119221E-12   1.84780995320318E-12
     -1.09855037756121E-15  -1.71771747599451E+01  -1.71771747599451E+01   0.00000000000000E+00   0.00000000000000E+00
     -2.29899115282544E-17  -1.86137267151967E-12  -1.86139566143120E-12  -2.17797445128474E-15
      3.53543495198903E-01
      8.00000000000000E-01   8.00000000000000E-01   0.00000000000000E+00   0.00000000000000E+00   1.35667453250700E-14
      4.49079534503344E-18   1.35712361204150E-14   3.26834854030366E-15   0.00000000000000E+00  -4.77592633479139E-15
      0.00000000000000E+00   0.00000000000000E+00  -1.16319118977860E-18   4.74262310473691E-12   4.74262194154572E-12
     -1.07879321917854E-15  -1.76771747599451E+01  -1.76771747599451E+01   0.00000000000000E+00   0.00000000000000E+00
     -2.29903188572985E-17  -4.75617018734725E-12  -4.75619317766611E-12  -2.18955532112512E-15
      3.63543495198903E-01
      8.00000000000000E-01   8.00000000000000E-01   0.00000000000000E+00   0.00000000000000E+00   1.35211449655742E-14
      1.80274736022510E-17   1.35391724391765E-14   3.26023801132317E-15   0.00000000000000E+00  -1.17561263625634E-14
      0.00000000000000E+00   0.00000000000000E+00  -3.22905666211597E-18   1.17769484285503E-11   1.17769451994936E-11
     -1.05889015388089E-15  -1.81771747599451E+01  -1.81771747599451E+01   0.00000000000000E+00   0.00000000000000E+00
     -2.29907344126271E-17  -1.17904613811984E-11  -1.17904843719328E-11  -2.20134785744228E-15
      3.73543495198903E-01
      8.00000000000000E-01   8.00000000000000E-01   0.00000000000000E+00   0.00000000000000E+00   1.34134886993881E-14
      2.66111369669564E-17   1.34400998363551E-14   3.25223378758266E-15   0.00000000000000E+00  -2.82881790599182E-14
      0.00000000000000E+00   0.00000000000000E+00  -1.32613644858179E-18   2.82423873564110E-11   2.82423860302745E-11
     -1.03887968510915E-15  -1.86771747599451E+01  -1.86771747599451E+01   0.00000000000000E+00   0.00000000000000E+00
     -2.29911583091173E-17  -2.82558031389526E-11  -2.82558261301109E-11  -2.21335410247351E-15
      3.83543495198903E-01
      8.00000000000000E-01   8.00000000000000E-01   0.00000000000000E+00   0.00000000000000E+00   1.32005509774562E-14
      1.68296100273557E-17   1.32173805874836E-14   3.24439233305525E-15   0.00000000000000E+00  -6.53016081545515E-14
      0.00000000000000E+00   0.00000000000000E+00  -1.47551141541432E-18   6.52595079179151E-11   6.52595064424037E-11
     -1.01881293154005E-15  -1.91771747599451E+01  -1.91771747599451E+01   0.00000000000000E+00   0.00000000000000E+00
     -2.29915907809092E-17  -6.52727008314001E-11  -6.52727238229908E-11  -2.22557940151518E-15
      3.93543495198903E-01
      8.00000000000000E-01   8.00000000000000E-01   0.00000000000000E+00   0.00000000000000E+00   1.28141071775134E-14
      3.44444821152216E-18   1.28175516257249E-14   3.23679461003159E-15   0.00000000000000E+00  -1.44930995313477E-13
      0.00000000000000E+00   0.00000000000000E+00  -1.82483444850414E-18   1.44891121773199E-10   1.44891119948364E-10
     -9.98759398154268E-16  -1.96771747599451E+01  -1.96771747599450E+01   0.00000000000000E+00   0.00000000000000E+00
     -2.29920322830635E-17  -1.44903914507957E-10  -1.44903937499990E-10  -2.23803521187733E-15
      4.03543495198903E-01
      8.00000000000000E-01   8.00000000000000E-01   0.00000000000000E+00   0.00000000000000E+00   1.22009178849684E-14
      1.61238539911259E-17   1.22170417389595E-14   3.22955734892220E-15   0.00000000000000E+00  -3.08047248594045E-13
      0.00000000000000E+00   0.00000000000000E+00  -1.85439725781783E-18   3.08023632374926E-10   3.08023630520529E-10
     -9.78813944693203E-16  -2.01771747599451E+01  -2.01771747599448E+01   0.00000000000000E+00   0.00000000000000E+00
     -2.29924836479754E-17  -3.08035824569786E-10  -3.08035847562270E-10  -2.25074340422901E-15
      4.13543495198903E-01
      8.00000000000000E-01   8.00000000000000E-01   0.00000000000000E+00   0.00000000000000E+00   1.13761076761997E-14
      8.41284220529490E-18   1.13845205184049E-14   3.22284446979245E-15   0.00000000000000E+00  -6.24452368273974E-13
      0.00000000000000E+00   0.00000000000000E+00  -2.46779305103739E-18   6.24408827299404E-10   6.24408824831611E-10
     -9.59102780684584E-16  -2.06771747599451E+01  -2.06771747599445E+01   0.00000000000000E+00   0.00000000000000E+00
     -2.29929462842378E-17  -6.24420186359180E-10  -6.24420209352126E-10  -2.26374168910786E-15
      4.23543495198903E-01
      8.00000000000000E-01   8.00000000000000E-01   0.00000000000000E+00   0.00000000000000E+00   1.04332000385794E-14
     -2.72534110085261E-17   1.04059466275709E-14   3.21687214358155E-15   0.00000000000000E+00  -1.20160469688607E-12
      0.00000000000000E+00   0.00000000000000E+00  -1.09756663345143E-18   1.20156603442054E-09   1.20156603332298E-09
     -9.39783821915458E-16  -2.11771747599451E+01  -2.11771747599439E+01   0.00000000000000E+00   0.00000000000000E+00
     -2.29934223522380E-17  -1.20157641627617E-09  -1.20157643926959E-09  -2.27708832166609E-15
      4.33543495198903E-01
      8.00000000000000E-01   8.00000000000000E-01   0.00000000000000E+00   0.00000000000000E+00   9.49253537683581E-15
     -1.40766072445193E-17   9.47845876959129E-15   3.21189807786891E-15   0.00000000000000E+00  -2.18608843501355E-12
      0.00000000000000E+00   0.00000000000000E+00  -2.25106017342568E-18   2.18606553609370E-09   2.18606553384264E-09
     -9.21035542567432E-16  -2.16771747599451E+01  -2.16771747599430E+01   0.00000000000000E+00   0.00000000000000E+00
     -2.29939147884214E-17  -2.18607498930747E-09  -2.18607501230139E-09  -2.29086253530149E-15
      4.43543495198903E-01
      8.00000000000000E-01   8.00000000000000E-01   0.00000000000000E+00   0.00000000000000E+00   8.62126000297227E-15
      3.91627755482660E-17   8.66042277852053E-15   3.20818961663633E-15   0.00000000000000E+00  -3.75084722281818E-12
      0.00000000000000E+00   0.00000000000000E+00  -1.12222932804911E-18   3.75085781361330E-09   3.75085781249107E-09
     -9.03032291571182E-16  -2.21771747599451E+01  -2.21771747599414E+01   0.00000000000000E+00   0.00000000000000E+00
     -2.29944270541076E-17  -3.75086644991941E-09  -3.75086647291384E-09  -2.30515732506514E-15
      4.53543495198903E-01
      8.00000000000000E-01   8.00000000000000E-01   0.00000000000000E+00   0.00000000000000E+00   7.85291319883212E-15
     -1.12894022111814E-17   7.84162379662094E-15   3.20597854250119E-15   0.00000000000000E+00  -6.06937576888499E-12
      0.00000000000000E+00   0.00000000000000E+00  -3.64657130058280E-18   6.06936529845067E-09   6.06936529480410E-09
     -8.85913406495039E-16  -2.26771747599451E+01  -2.26771747599391E+01   0.00000000000000E+00   0.00000000000000E+00
     -2.29949626248206E-17  -6.06937311343295E-09  -6.06937313642792E-09  -2.32006513600614E-15
      4.63543495198903E-01
      8.00000000000000E-01   8.00000000000000E-01   0.00000000000000E+00   0.00000000000000E+00   7.18582973817587E-15
     -3.99762791751842E-18   7.18183211025835E-15   3.20542282637878E-15   0.00000000000000E+00  -9.28697244747627E-12