DF-ISE text

Info {
  version   = 1.0
  type      = xyplot
  datasets  = [
    "time"
    "Ntop OuterVoltage" "Ntop InnerVoltage" "Ntop QuasiFermiPotential" "Ntop DisplacementCurrent" "Ntop eCurrent"
    "Ntop hCurrent" "Ntop TotalCurrent" "Ntop Charge" "Ptop OuterVoltage" "Ptop InnerVoltage"
    "Ptop QuasiFermiPotential" "Ptop DisplacementCurrent" "Ptop eCurrent" "Ptop hCurrent" "Ptop TotalCurrent"
    "Ptop Charge" "Pbot OuterVoltage" "Pbot InnerVoltage" "Pbot QuasiFermiPotential" "Pbot DisplacementCurrent"
    "Pbot eCurrent" "Pbot hCurrent" "Pbot TotalCurrent" "Pbot Charge" ]
  functions = [
    Time
    OuterVoltage InnerVoltage QuasiFermiPotential DisplacementCurrent eCurrent
    hCurrent TotalCurrent Charge OuterVoltage InnerVoltage
    QuasiFermiPotential DisplacementCurrent eCurrent hCurrent TotalCurrent
    Charge OuterVoltage InnerVoltage QuasiFermiPotential DisplacementCurrent
    eCurrent hCurrent TotalCurrent Charge ]
}

Data {
      1.00000000000000E-03
      8.00000000000000E-01   8.00000000000000E-01   0.00000000000000E+00   0.00000000000000E+00   1.46980339560515E-14
     -2.91858344122558E-20   1.46980047702171E-14   4.68393684903427E-15   0.00000000000000E+00   0.00000000000000E+00
      0.00000000000000E+00   0.00000000000000E+00  -9.08531980756655E-19  -9.97673804446926E-15  -9.97764657645002E-15
     -2.76916980591358E-15  -5.00000000000000E-02  -5.00000000000000E-02   0.00000000000000E+00   0.00000000000000E+00
     -2.29808638243114E-17  -4.69737732994277E-15  -4.72035819376708E-15  -1.91476704312069E-15
      2.91111111111111E-03
      8.00000000000000E-01   8.00000000000000E-01   0.00000000000000E+00   0.00000000000000E+00   1.50140933192643E-14
     -5.96616216733772E-19   1.50134967030476E-14   4.68482356152596E-15   0.00000000000000E+00   0.00000000000000E+00
      0.00000000000000E+00   0.00000000000000E+00  -9.08531980543966E-19  -9.97548914477470E-15  -9.97639767675525E-15
     -2.76916817441447E-15  -1.45555555555556E-01  -1.45555555555555E-01   0.00000000000000E+00   0.00000000000000E+00
     -2.29808936217520E-17  -5.01411813267059E-15  -5.03709902629234E-15  -1.91565538711148E-15
      6.56345679012346E-03
      8.00000000000000E-01   8.00000000000000E-01   0.00000000000000E+00   0.00000000000000E+00   1.55787012680294E-14
     -1.12876310404754E-18   1.55775725049254E-14   4.68651419591437E-15   0.00000000000000E+00   0.00000000000000E+00
      0.00000000000000E+00   0.00000000000000E+00  -9.08531978828906E-19  -9.97330809374773E-15  -9.97421662572656E-15
     -2.76916311845720E-15  -3.28172839506173E-01  -3.28172839506173E-01   0.00000000000000E+00   0.00000000000000E+00
     -2.29809505200676E-17  -5.58037492867874E-15  -5.60335587919881E-15  -1.91735107745718E-15
      1.35434951989026E-02
      8.00000000000000E-01   8.00000000000000E-01   0.00000000000000E+00   0.00000000000000E+00   1.65500098888638E-14
      2.05798674404692E-18   1.65520678756079E-14   4.68972480742145E-15   0.00000000000000E+00   0.00000000000000E+00
      0.00000000000000E+00   0.00000000000000E+00  -9.08531970894792E-19  -9.96981889861224E-15  -9.97072743058314E-15
     -2.76913994428707E-15  -6.77174759945130E-01  -6.77174759945130E-01   0.00000000000000E+00   0.00000000000000E+00
     -2.29810590983100E-17  -6.55835938592639E-15  -6.58134044502470E-15  -1.92058486313437E-15
      2.35434951989026E-02
      8.00000000000000E-01   8.00000000000000E-01   0.00000000000000E+00   0.00000000000000E+00   1.77653023665810E-14
      3.41486283728077E-19   1.77656438528648E-14   4.69423177091641E-15   0.00000000000000E+00   0.00000000000000E+00
      0.00000000000000E+00   0.00000000000000E+00  -9.08531932517589E-19  -9.96623403320468E-15  -9.96714256513720E-15
     -2.76902466804551E-15  -1.17717475994513E+00  -1.17717475994513E+00   0.00000000000000E+00   0.00000000000000E+00
     -2.29812144437429E-17  -7.77552007328382E-15  -7.79850128772757E-15  -1.92520710287089E-15
      3.35434951989026E-02
      8.00000000000000E-01   8.00000000000000E-01   0.00000000000000E+00   0.00000000000000E+00   1.88156667493641E-14
      8.83042914203144E-19   1.88165497922783E-14   4.69846057646399E-15   0.00000000000000E+00   0.00000000000000E+00
      0.00000000000000E+00   0.00000000000000E+00  -9.08531799096255E-19  -9.96440870796164E-15  -9.96531723976074E-15
     -2.76862822106694E-15  -1.67717475994513E+00  -1.67717475994513E+00   0.00000000000000E+00   0.00000000000000E+00
     -2.29813700545707E-17  -8.82825118246294E-15  -8.85123255251750E-15  -1.92983235539704E-15
      4.35434951989026E-02
      8.00000000000000E-01   8.00000000000000E-01   0.00000000000000E+00   0.00000000000000E+00   1.96887508111471E-14
      1.24781494475286E-19   1.96888755926416E-14   4.70204099770738E-15   0.00000000000000E+00   0.00000000000000E+00
      0.00000000000000E+00   0.00000000000000E+00  -9.08531431619247E-19  -9.96499810510859E-15  -9.96590663654021E-15
     -2.76753146425728E-15  -2.17717475994513E+00  -2.17717475994513E+00   0.00000000000000E+00   0.00000000000000E+00
     -2.29815275715280E-17  -9.69998742852977E-15  -9.72296895610130E-15  -1.93450953345010E-15
      5.35434951989026E-02
      8.00000000000000E-01   8.00000000000000E-01   0.00000000000000E+00   0.00000000000000E+00   2.03514174298545E-14
     -4.27793256498835E-18   2.03471394972895E-14   4.70438539088562E-15   0.00000000000000E+00   0.00000000000000E+00
      0.00000000000000E+00   0.00000000000000E+00  -9.08530613825177E-19  -9.96928281632992E-15  -9.97019134694375E-15
     -2.76507921799515E-15  -2.67717475994513E+00  -2.67717475994513E+00   0.00000000000000E+00   0.00000000000000E+00
     -2.29816892721637E-17  -1.03539664610736E-14  -1.03769481503458E-14  -1.93930617289047E-15
      6.35434951989026E-02
      8.00000000000000E-01   8.00000000000000E-01   0.00000000000000E+00   0.00000000000000E+00   2.08935548293501E-14
     -5.21856121247963E-18   2.08883362681377E-14   4.70482657553173E-15   0.00000000000000E+00   0.00000000000000E+00
      0.00000000000000E+00   0.00000000000000E+00  -9.08529127325861E-19  -9.97920639821623E-15  -9.98011492734356E-15
     -2.76056222839114E-15  -3.17717475994513E+00  -3.17717475994513E+00   0.00000000000000E+00   0.00000000000000E+00
     -2.29818565844980E-17  -1.08852394842095E-14  -1.09082213407940E-14  -1.94426434714058E-15
      7.35434951989026E-02
      8.00000000000000E-01   8.00000000000000E-01   0.00000000000000E+00   0.00000000000000E+00   2.13362775458395E-14
     -6.27269000665708E-18   2.13300048558328E-14   4.70310050857348E-15   0.00000000000000E+00   0.00000000000000E+00
      0.00000000000000E+00   0.00000000000000E+00  -9.08526921153886E-19  -9.99714658370045E-15  -9.99805511062161E-15
     -2.75368608492878E-15  -3.67717475994513E+00  -3.67717475994513E+00   0.00000000000000E+00   0.00000000000000E+00
     -2.29820305473683E-17  -1.13089677146639E-14  -1.13319497452112E-14  -1.94941442364470E-15
      8.35434951989026E-02
      8.00000000000000E-01   8.00000000000000E-01   0.00000000000000E+00   0.00000000000000E+00   2.16831058457916E-14
      1.00143988867804E-17   2.16931202446784E-14   4.69954455678989E-15   0.00000000000000E+00   0.00000000000000E+00
      0.00000000000000E+00   0.00000000000000E+00  -9.08524152813762E-19  -1.00244486245424E-14  -1.00253571486952E-14
     -2.74476351089042E-15  -4.17717475994513E+00  -4.17717475994513E+00   0.00000000000000E+00   0.00000000000000E+00
     -2.29822120108407E-17  -1.16447808839723E-14  -1.16677630959831E-14  -1.95478104589947E-15
      9.35434951989026E-02
      8.00000000000000E-01   8.00000000000000E-01   0.00000000000000E+00   0.00000000000000E+00   2.19490214080784E-14
     -7.52093724475541E-18   2.19415004708336E-14   4.69469356542241E-15   0.00000000000000E+00   0.00000000000000E+00
      0.00000000000000E+00   0.00000000000000E+00  -9.08521023227492E-19  -1.00577394918810E-14  -1.00586480129042E-14
     -2.73431272098703E-15  -4.67717475994513E+00  -4.67717475994513E+00   0.00000000000000E+00   0.00000000000000E+00
     -2.29824015578225E-17  -1.18598700563716E-14  -1.18828524579294E-14  -1.96038084443537E-15
      1.03543495198903E-01
      8.00000000000000E-01   8.00000000000000E-01   0.00000000000000E+00   0.00000000000000E+00   2.21449650723978E-14
     -5.51044068316974E-18   2.21394546317146E-14   4.68894002756659E-15   0.00000000000000E+00   0.00000000000000E+00
      0.00000000000000E+00   0.00000000000000E+00  -9.08517663658262E-19  -1.00866349190007E-14  -1.00875434366643E-14
     -2.72271794365972E-15  -5.17717475994513E+00  -5.17717475994513E+00   0.00000000000000E+00   0.00000000000000E+00
     -2.29825994908217E-17  -1.20289285955595E-14  -1.20519111950503E-14  -1.96622208390687E-15
      1.13543495198903E-01
      8.00000000000000E-01   8.00000000000000E-01   0.00000000000000E+00   0.00000000000000E+00   2.22825507560972E-14
      7.44895489043011E-18   2.22899997109876E-14   4.68251236907286E-15   0.00000000000000E+00   0.00000000000000E+00
      0.00000000000000E+00   0.00000000000000E+00  -9.08514144429696E-19  -1.01036838318137E-14  -1.01045923459581E-14
     -2.71020481268763E-15  -5.67717475994513E+00  -5.67717475994513E+00   0.00000000000000E+00   0.00000000000000E+00
     -2.29828059287108E-17  -1.21624245591008E-14  -1.21854073650295E-14  -1.97230755638522E-15
      1.23543495198903E-01
      8.00000000000000E-01   8.00000000000000E-01   0.00000000000000E+00   0.00000000000000E+00   2.23805838892377E-14
     -8.03762285337649E-19   2.23797801269524E-14   4.67554046900620E-15   0.00000000000000E+00   0.00000000000000E+00
      0.00000000000000E+00   0.00000000000000E+00  -9.08510501745033E-19  -1.01106599435373E-14  -1.01115684540391E-14
     -2.69690324677500E-15  -6.17717475994513E+00  -6.17717475994513E+00   0.00000000000000E+00   0.00000000000000E+00
     -2.29830208954822E-17  -1.22452286520177E-14  -1.22682116729132E-14  -1.97863722223121E-15
      1.33543495198903E-01
      8.00000000000000E-01   8.00000000000000E-01   0.00000000000000E+00   0.00000000000000E+00   2.24548890024685E-14
     -9.46432313385384E-18   2.24454246793346E-14   4.66810186963429E-15   0.00000000000000E+00   0.00000000000000E+00
      0.00000000000000E+00   0.00000000000000E+00  -9.08506757166653E-19  -1.01116403126863E-14  -1.01125488194435E-14
     -2.68289220313330E-15  -6.67717475994513E+00  -6.67717475994513E+00   0.00000000000000E+00   0.00000000000000E+00
     -2.29832443692570E-17  -1.23098926155219E-14  -1.23328758598911E-14  -1.98520966650098E-15
      1.43543495198903E-01
      8.00000000000000E-01   8.00000000000000E-01   0.00000000000000E+00   0.00000000000000E+00   2.25145247712745E-14
      7.81351099603895E-18   2.25223382822706E-14   4.66024544606458E-15   0.00000000000000E+00   0.00000000000000E+00
      0.00000000000000E+00   0.00000000000000E+00  -9.08502924462875E-19  -1.01091893749301E-14  -1.01100978778546E-14
     -2.66822263959642E-15  -7.17717475994513E+00  -7.17717475994513E+00   0.00000000000000E+00   0.00000000000000E+00
     -2.29834763061004E-17  -1.23892569281099E-14  -1.24122404044160E-14  -1.99202280646815E-15
      1.53543495198903E-01
      8.00000000000000E-01   8.00000000000000E-01   0.00000000000000E+00   0.00000000000000E+00   2.25640977983537E-14
     -8.19827325712058E-18   2.25558995250966E-14   4.65200301307156E-15   0.00000000000000E+00   0.00000000000000E+00
      0.00000000000000E+00   0.00000000000000E+00  -9.08499012842548E-19  -1.01045944936061E-14  -1.01055029926189E-14
     -2.65292877579188E-15  -7.67717475994513E+00  -7.67717475994513E+00   0.00000000000000E+00   0.00000000000000E+00
     -2.29837166516521E-17  -1.24274128158260E-14  -1.24503965324777E-14  -1.99907423727966E-15
      1.63543495198903E-01
      8.00000000000000E-01   8.00000000000000E-01   0.00000000000000E+00   0.00000000000000E+00   2.26060794797866E-14
     -4.48322919329737E-18   2.26015962505933E-14   4.64339518343112E-15   0.00000000000000E+00   0.00000000000000E+00
      0.00000000000000E+00   0.00000000000000E+00  -9.08495028352968E-19  -1.00984095877903E-14  -1.00993180828186E-14
     -2.63703377498255E-15  -8.17717475994513E+00  -8.17717475994513E+00   0.00000000000000E+00   0.00000000000000E+00
     -2.29839653470675E-17  -1.24792942024276E-14  -1.25022781677747E-14  -2.00636140844857E-15
      1.73543495198903E-01
      8.00000000000000E-01   8.00000000000000E-01   0.00000000000000E+00   0.00000000000000E+00   2.26420363469144E-14
     -1.64413455365375E-18   2.26403922123608E-14   4.63443436228572E-15   0.00000000000000E+00   0.00000000000000E+00
      0.00000000000000E+00   0.00000000000000E+00  -9.08490977227669E-19  -1.00909604754488E-14  -1.00918689664260E-14
     -2.62055264759929E-15  -8.67717475994513E+00  -8.67717475994513E+00   0.00000000000000E+00   0.00000000000000E+00
     -2.29842223320627E-17  -1.25255390236026E-14  -1.25485232459347E-14  -2.01388171468644E-15
      1.83543495198903E-01
      8.00000000000000E-01   8.00000000000000E-01   0.00000000000000E+00   0.00000000000000E+00   2.26730695290057E-14
     -6.63778794851905E-18   2.26664317410572E-14   4.62512610371584E-15   0.00000000000000E+00   0.00000000000000E+00
      0.00000000000000E+00   0.00000000000000E+00  -9.08486863086180E-19  -1.00824124191989E-14  -1.00833209060620E-14
     -2.60349356818485E-15  -9.17717475994513E+00  -9.17717475994513E+00   0.00000000000000E+00   0.00000000000000E+00
     -2.29844875462363E-17  -1.25601263474489E-14  -1.25831108349951E-14  -2.02163253553098E-15
      1.93543495198903E-01
      8.00000000000000E-01   8.00000000000000E-01   0.00000000000000E+00   0.00000000000000E+00   2.27000960222689E-14
     -3.32539683913628E-18   2.26967706254298E-14   4.61546935620196E-15   0.00000000000000E+00   0.00000000000000E+00
      0.00000000000000E+00   0.00000000000000E+00  -9.08482689175405E-19  -1.00727096460730E-14  -1.00736181287622E-14
     -2.58585811704665E-15  -9.67717475994513E+00  -9.67717475994513E+00   0.00000000000000E+00   0.00000000000000E+00
     -2.29847609291736E-17  -1.26001677357384E-14  -1.26231524966676E-14  -2.02961123915531E-15
      2.03543495198903E-01
      8.00000000000000E-01   8.00000000000000E-01   0.00000000000000E+00   0.00000000000000E+00   2.27240268643869E-14
     -1.28412841328728E-17   2.27111855802540E-14   4.60545587922499E-15   0.00000000000000E+00   0.00000000000000E+00
      0.00000000000000E+00   0.00000000000000E+00  -9.08478457083788E-19  -1.00617838011187E-14  -1.00626922795758E-14
     -2.56764071857652E-15  -1.01771747599451E+01  -1.01771747599451E+01   0.00000000000000E+00   0.00000000000000E+00
     -2.29850424196682E-17  -1.26255082582586E-14  -1.26484933006783E-14  -2.03781516064846E-15
      2.13543495198903E-01
      8.00000000000000E-01   8.00000000000000E-01   0.00000000000000E+00   0.00000000000000E+00   2.27457430342562E-14
     -5.82321567762512E-18   2.27399198185786E-14   4.59506915098777E-15   0.00000000000000E+00   0.00000000000000E+00
      0.00000000000000E+00   0.00000000000000E+00  -9.08474170521614E-19  -1.00488474492545E-14  -1.00497559234250E-14
     -2.54882758311840E-15  -1.06771747599451E+01  -1.06771747599451E+01   0.00000000000000E+00   0.00000000000000E+00
     -2.29853319545195E-17  -1.26671785631990E-14  -1.26901638951535E-14  -2.04624156786936E-15
      2.23543495198903E-01
      8.00000000000000E-01   8.00000000000000E-01   0.00000000000000E+00   0.00000000000000E+00   2.27658512303596E-14
     -4.99899870582191E-18   2.27608522316537E-14   4.58428352074817E-15   0.00000000000000E+00   0.00000000000000E+00
      0.00000000000000E+00   0.00000000000000E+00  -9.08469828346653E-19  -1.00311954708792E-14  -1.00321039407076E-14
     -2.52939587934274E-15  -1.11771747599451E+01  -1.11771747599451E+01   0.00000000000000E+00   0.00000000000000E+00
     -2.29856294678002E-17  -1.27057626614783E-14  -1.27287482909461E-14  -2.05488764140542E-15
      2.33543495198903E-01
      8.00000000000000E-01   8.00000000000000E-01   0.00000000000000E+00   0.00000000000000E+00   2.27847571832156E-14
     -4.37453008593531E-18   2.27803826531297E-14   4.57306560846867E-15   0.00000000000000E+00   0.00000000000000E+00
      0.00000000000000E+00   0.00000000000000E+00  -9.08465432349554E-19  -9.99923032695575E-15  -1.00001387923881E-14
     -2.50931507824837E-15  -1.16771747599451E+01  -1.16771747599451E+01   0.00000000000000E+00   0.00000000000000E+00
     -2.29859348927252E-17  -1.27572579258489E-14  -1.27802438607417E-14  -2.06375053022030E-15
      2.43543495198903E-01
      8.00000000000000E-01   8.00000000000000E-01   0.00000000000000E+00   0.00000000000000E+00   2.28027555373172E-14
      5.93000213786089E-18   2.28086855394550E-14   4.56138239197008E-15   0.00000000000000E+00   0.00000000000000E+00
      0.00000000000000E+00   0.00000000000000E+00  -9.08460983081917E-19  -9.91983817383432E-15  -9.92074663481740E-15
     -2.48855478425719E-15  -1.21771747599451E+01  -1.21771747599451E+01   0.00000000000000E+00   0.00000000000000E+00
     -2.29862481704641E-17  -1.28649526564672E-14  -1.28879389046376E-14  -2.07282760771288E-15
      2.53543495198903E-01
      8.00000000000000E-01   8.00000000000000E-01   0.00000000000000E+00   0.00000000000000E+00   2.28200044768710E-14
      1.03393123621367E-17   2.28303437892331E-14   4.54922203188513E-15   0.00000000000000E+00   0.00000000000000E+00
      0.00000000000000E+00   0.00000000000000E+00  -9.08456483792038E-19  -9.68091208932096E-15  -9.68182054580475E-15
     -2.46710495348895E-15  -1.26771747599451E+01  -1.26771747599451E+01   0.00000000000000E+00   0.00000000000000E+00
     -2.29865692711618E-17  -1.31255366741573E-14  -1.31485232434284E-14  -2.08211707839618E-15
      2.63543495198903E-01
      8.00000000000000E-01   8.00000000000000E-01   0.00000000000000E+00   0.00000000000000E+00   2.28364649853244E-14
     -8.19073827399505E-18   2.28282742470504E-14   4.53662531591660E-15   0.00000000000000E+00   0.00000000000000E+00
      0.00000000000000E+00   0.00000000000000E+00  -9.08451941897362E-19  -8.91115757277445E-15  -8.91206602471635E-15
     -2.44500649161586E-15  -1.31771747599451E+01  -1.31771747599451E+01   0.00000000000000E+00   0.00000000000000E+00
     -2.29868982234640E-17  -1.38932213241106E-14  -1.39162082223341E-14  -2.09161882430074E-15
      2.73543495198903E-01
      8.00000000000000E-01   8.00000000000000E-01   0.00000000000000E+00   0.00000000000000E+00   2.28518735072993E-14
     -1.40775412627466E-17   2.28377959660366E-14   4.52370210303597E-15   0.00000000000000E+00   0.00000000000000E+00
      0.00000000000000E+00   0.00000000000000E+00  -9.08447366508520E-19  -6.41687203814635E-15  -6.41778048551286E-15
     -2.42236736750701E-15  -1.36771747599451E+01  -1.36771747599451E+01   0.00000000000000E+00   0.00000000000000E+00
     -2.29872351264446E-17  -1.63970282453973E-14  -1.64200154805238E-14  -2.10133473552895E-15
      2.83543495198903E-01
      8.00000000000000E-01   8.00000000000000E-01   0.00000000000000E+00   0.00000000000000E+00   2.28657923248247E-14
     -4.58457787399729E-18   2.28612077469507E-14   4.51060386062575E-15   0.00000000000000E+00   0.00000000000000E+00
      0.00000000000000E+00   0.00000000000000E+00  -9.08442766602958E-19   1.51080979426937E-15   1.50990135150277E-15
     -2.39933607138164E-15  -1.41771747599451E+01  -1.41771747599451E+01   0.00000000000000E+00   0.00000000000000E+00
     -2.29875801181637E-17  -2.43481215183353E-14  -2.43711090984535E-14  -2.11126778924410E-15
      2.93543495198903E-01
      8.00000000000000E-01   8.00000000000000E-01   0.00000000000000E+00   0.00000000000000E+00   2.28776698167990E-14
     -7.38690450614905E-18   2.28702829122929E-14   4.49747250849901E-15   0.00000000000000E+00   0.00000000000000E+00
      0.00000000000000E+00   0.00000000000000E+00  -9.08438132917399E-19   2.59774686190208E-14   2.59765601808879E-14
     -2.37605194128221E-15  -1.46771747599451E+01  -1.46771747599451E+01   0.00000000000000E+00   0.00000000000000E+00
     -2.29879333243944E-17  -4.88238551598563E-14  -4.88468430931807E-14  -2.12142056721678E-15
      3.03543495198903E-01
      8.00000000000000E-01   8.00000000000000E-01   0.00000000000000E+00   0.00000000000000E+00   2.28867827148891E-14
     -9.17140859035366E-18   2.28776113062988E-14   4.48441145865333E-15   0.00000000000000E+00  -9.18447372075268E-17
      0.00000000000000E+00   0.00000000000000E+00  -9.08433382915889E-19   9.89860137067798E-14   9.89851052733969E-14
     -2.35261696625140E-15  -1.51771747599451E+01  -1.51771747599451E+01   0.00000000000000E+00   0.00000000000000E+00
     -2.29882948319190E-17  -1.21839728284864E-13  -1.21862716579696E-13  -2.13179449240197E-15
      3.13543495198903E-01
      8.00000000000000E-01   8.00000000000000E-01   0.00000000000000E+00   0.00000000000000E+00   2.28919733286870E-14
      1.18780359331342E-17   2.29038513646201E-14   4.47148696772496E-15   0.00000000000000E+00  -2.75534211622580E-16
      0.00000000000000E+00   0.00000000000000E+00  -9.08428069344323E-19   3.09182407843974E-13   3.09181499415905E-13
     -2.32909703737290E-15  -1.56771747599451E+01  -1.56771747599451E+01   0.00000000000000E+00   0.00000000000000E+00
     -2.29886646917633E-17  -3.32062362115834E-13  -3.32085350780525E-13  -2.14238993035205E-15
      3.23543495198903E-01
      8.00000000000000E-01   8.00000000000000E-01   0.00000000000000E+00   0.00000000000000E+00   2.28910329865182E-14
     -7.45526998697223E-18   2.28835777165313E-14   4.45874116869960E-15   0.00000000000000E+00  -9.18447372075267E-16
      0.00000000000000E+00   0.00000000000000E+00  -9.08421266393543E-19   8.92279554876118E-13   8.92278646454852E-13
     -2.30553455607810E-15  -1.61771747599451E+01  -1.61771747599451E+01   0.00000000000000E+00   0.00000000000000E+00
     -2.29890429337282E-17  -9.15139235128450E-13  -9.15162224171384E-13  -2.15320661262150E-15
      3.33543495198903E-01
      8.00000000000000E-01   8.00000000000000E-01   0.00000000000000E+00   0.00000000000000E+00   2.28793183446290E-14
     -5.94533917398061E-18   2.28733730054550E-14   4.44620422592995E-15   0.00000000000000E+00  -2.47980790460322E-15
      0.00000000000000E+00   0.00000000000000E+00  -9.08408904645285E-19   2.44901864075440E-12   2.44901773234549E-12
     -2.28196014979086E-15  -1.66771747599451E+01  -1.66771747599451E+01   0.00000000000000E+00   0.00000000000000E+00
     -2.29894295816371E-17  -2.47186811592137E-12  -2.47189110535095E-12  -2.16424407613909E-15
      3.43543495198903E-01
      8.00000000000000E-01   8.00000000000000E-01   0.00000000000000E+00   0.00000000000000E+00   2.28468101399038E-14
     -2.09072483021277E-18   2.28447194150735E-14   4.43390321473090E-15   0.00000000000000E+00  -6.42913160452687E-15
      0.00000000000000E+00   0.00000000000000E+00  -9.08380467479864E-19   6.44397405333677E-12   6.44397314495630E-12
     -2.25840107286218E-15  -1.71771747599451E+01  -1.71771747599451E+01   0.00000000000000E+00   0.00000000000000E+00
     -2.29898246701666E-17  -6.46679487454669E-12  -6.46681786437136E-12  -2.17550214186871E-15
      3.53543495198903E-01
      8.00000000000000E-01   8.00000000000000E-01   0.00000000000000E+00   0.00000000000000E+00   2.27725875110666E-14
      6.76067750107833E-18   2.27793481885677E-14   4.42186920376666E-15   0.00000000000000E+00  -1.62565184857322E-14
      0.00000000000000E+00   0.00000000000000E+00  -9.08308704026197E-19   1.62835250982525E-11   1.62835241899438E-11
     -2.23488757283990E-15  -1.76771747599451E+01  -1.76771747599451E+01   0.00000000000000E+00   0.00000000000000E+00
     -2.29902282703117E-17  -1.63062805479041E-11  -1.63063035381324E-11  -2.18698163092678E-15
      3.63543495198903E-01
      8.00000000000000E-01   8.00000000000000E-01   0.00000000000000E+00   0.00000000000000E+00   2.26165786215203E-14
      2.23047138219165E-17   2.26388833353422E-14   4.41014457128868E-15   0.00000000000000E+00  -3.94932369992365E-14
      0.00000000000000E+00   0.00000000000000E+00  -9.08131137486784E-19   3.94973183642367E-11   3.94973174561056E-11
     -2.21145892888592E-15  -1.81771747599451E+01  -1.81771747599451E+01   0.00000000000000E+00   0.00000000000000E+00
     -2.29906405351017E-17  -3.95199333488003E-11  -3.95199563394408E-11  -2.19868564240276E-15
      3.73543495198903E-01
      8.00000000000000E-01   8.00000000000000E-01   0.00000000000000E+00   0.00000000000000E+00   2.23134501792895E-14
     -1.50062994743921E-17   2.22984438798151E-14   4.39879231176213E-15   0.00000000000000E+00  -9.18447372075268E-14
      0.00000000000000E+00   0.00000000000000E+00  -9.07725725275630E-19   9.18146828005143E-11   9.18146818927885E-11
     -2.18817046655863E-15  -1.86771747599451E+01  -1.86771747599451E+01   0.00000000000000E+00   0.00000000000000E+00
     -2.29910617819863E-17  -9.18369573456065E-11  -9.18369803366683E-11  -2.21062184520350E-15
      3.83543495198903E-01
      8.00000000000000E-01   8.00000000000000E-01   0.00000000000000E+00   0.00000000000000E+00   2.17851528912252E-14
      3.18385942793703E-17   2.18169914855045E-14   4.38790835318380E-15   0.00000000000000E+00  -2.03987161337917E-13
      0.00000000000000E+00   0.00000000000000E+00  -9.06911273272147E-19   2.04029199252751E-10   2.04029198345840E-10
     -2.16510208123469E-15  -1.91771747599451E+01  -1.91771747599449E+01   0.00000000000000E+00   0.00000000000000E+00
     -2.29914926297822E-17  -2.04050992345832E-10  -2.04051015337325E-10  -2.22280627194911E-15
      3.93543495198903E-01
      8.00000000000000E-01   8.00000000000000E-01   0.00000000000000E+00   0.00000000000000E+00   2.09909421710797E-14
      2.23450469544133E-18   2.09931766757752E-14   4.37763596759256E-15   0.00000000000000E+00  -4.31945799086998E-13
      0.00000000000000E+00   0.00000000000000E+00  -9.05527470133626E-19   4.31953460884811E-10   4.31953459979284E-10
     -2.14236721003501E-15  -1.96771747599451E+01  -1.96771747599447E+01   0.00000000000000E+00   0.00000000000000E+00
     -2.29919341961207E-17  -4.31974430164026E-10  -4.31974453155960E-10  -2.23526875755755E-15
      4.03543495198903E-01
      8.00000000000000E-01   8.00000000000000E-01   0.00000000000000E+00   0.00000000000000E+00   1.99849592746765E-14
     -2.70638862722987E-17   1.99578953884042E-14   4.36817735231297E-15   0.00000000000000E+00  -8.67657232399505E-13
      0.00000000000000E+00   0.00000000000000E+00  -9.03571599258293E-19   8.67686783848078E-10   8.67686782944507E-10
     -2.12011834821324E-15  -2.01771747599451E+01  -2.01771747599443E+01   0.00000000000000E+00   0.00000000000000E+00
     -2.29923883198962E-17  -8.67706717847505E-10  -8.67706740839894E-10  -2.24805900409972E-15
      4.13543495198903E-01
      8.00000000000000E-01   8.00000000000000E-01   0.00000000000000E+00   0.00000000000000E+00   1.88985485346011E-14
      8.06749120011794E-18   1.89066160258012E-14   4.35979238830364E-15   0.00000000000000E+00  -1.64668429339375E-12
      0.00000000000000E+00   0.00000000000000E+00  -9.01222375607260E-19   1.64672558312976E-09   1.64672558222853E-09
     -2.09854215152803E-15  -2.06771747599451E+01  -2.06771747599435E+01   0.00000000000000E+00   0.00000000000000E+00
     -2.29928577003418E-17  -1.64674446585170E-09  -1.64674448884455E-09  -2.26125023677562E-15
      4.23543495198903E-01
      8.00000000000000E-01   8.00000000000000E-01   0.00000000000000E+00   0.00000000000000E+00   1.78560807332411E-14
     -1.53820215571539E-18   1.78545425310854E-14   4.35277387137714E-15   0.00000000000000E+00  -2.94270538012916E-12
      0.00000000000000E+00   0.00000000000000E+00  -8.98697415625269E-19   2.94273204536296E-09   2.94273204446426E-09
     -2.07783786720106E-15  -2.11771747599451E+01  -2.11771747599422E+01   0.00000000000000E+00   0.00000000000000E+00
     -2.29933457919618E-17  -2.94274987601344E-09  -2.94274989900679E-09  -2.27493600417608E-15
      4.33543495198903E-01
      8.00000000000000E-01   8.00000000000000E-01   0.00000000000000E+00   0.00000000000000E+00   1.69280020767423E-14
     -2.39803547360917E-17   1.69040217220062E-14   4.34739929476487E-15   0.00000000000000E+00  -4.94537987493928E-12
      0.00000000000000E+00   0.00000000000000E+00  -8.96136037212055E-19   4.94540152428540E-09   4.94540152338926E-09
     -2.05818151146142E-15  -2.16771747599451E+01  -2.16771747599402E+01   0.00000000000000E+00   0.00000000000000E+00
     -2.29938563676375E-17  -4.94541840441718E-09  -4.94541842741103E-09  -2.28921778330344E-15
      4.43543495198903E-01
      8.00000000000000E-01   8.00000000000000E-01   0.00000000000000E+00   0.00000000000000E+00   1.61351841670542E-14
     -1.17714104047963E-17   1.61234127566494E-14   4.34387786658049E-15   0.00000000000000E+00  -7.82801879693471E-12
      0.00000000000000E+00   0.00000000000000E+00  -8.93589641381795E-19   7.82800765629579E-09   7.82800765540220E-09
     -2.03969068130872E-15  -2.21771747599451E+01  -2.21771747599373E+01   0.00000000000000E+00   0.00000000000000E+00
     -2.29943928818271E-17  -7.82802375582048E-09  -7.82802377881487E-09  -2.30418718527176E-15
      4.53543495198903E-01
      8.00000000000000E-01   8.00000000000000E-01   0.00000000000000E+00   0.00000000000000E+00   1.54652420116360E-14
     -2.94073472597957E-17   1.54358346643762E-14   4.34231878649344E-15   0.00000000000000E+00  -1.17200313808409E-11
      0.00000000000000E+00   0.00000000000000E+00  -8.91050792138195E-19   1.17200237610947E-08   1.17200237602037E-08
     -2.02240755380744E-15  -2.26771747599451E+01  -2.26771747599334E+01   0.00000000000000E+00   0.00000000000000E+00
     -2.29949579366199E-17  -1.17200391730432E-08  -1.17200391960382E-08  -2.31991123268603E-15
      4.63543495198903E-01
      8.00000000000000E-01   8.00000000000000E-01   0.00000000000000E+00   0.00000000000000E+00   1.48920689699408E-14
      2.34067893719890E-17   1.49154757593127E-14   4.34273216558258E-15   0.00000000000000E+00  -1.66962710874819E-11