DF-ISE text

Info {
  version   = 1.0
  type      = xyplot
  datasets  = [
    "time"
    "Ntop OuterVoltage" "Ntop InnerVoltage" "Ntop QuasiFermiPotential" "Ntop DisplacementCurrent" "Ntop eCurrent"
    "Ntop hCurrent" "Ntop TotalCurrent" "Ntop Charge" "Ptop OuterVoltage" "Ptop InnerVoltage"
    "Ptop QuasiFermiPotential" "Ptop DisplacementCurrent" "Ptop eCurrent" "Ptop hCurrent" "Ptop TotalCurrent"
    "Ptop Charge" "Pbot OuterVoltage" "Pbot InnerVoltage" "Pbot QuasiFermiPotential" "Pbot DisplacementCurrent"
    "Pbot eCurrent" "Pbot hCurrent" "Pbot TotalCurrent" "Pbot Charge" ]
  functions = [
    Time
    OuterVoltage InnerVoltage QuasiFermiPotential DisplacementCurrent eCurrent
    hCurrent TotalCurrent Charge OuterVoltage InnerVoltage
    QuasiFermiPotential DisplacementCurrent eCurrent hCurrent TotalCurrent
    Charge OuterVoltage InnerVoltage QuasiFermiPotential DisplacementCurrent
    eCurrent hCurrent TotalCurrent Charge ]
}

Data {
      1.00000000000000E-03
      8.00000000000000E-01   8.00000000000000E-01   0.00000000000000E+00   0.00000000000000E+00   5.46929642562496E-15
     -7.72401910202120E-21   5.46928870160585E-15   4.68393684905704E-15   0.00000000000000E+00   0.00000000000000E+00
      0.00000000000000E+00   0.00000000000000E+00  -1.88730405039208E-18  -7.47021774148504E-16  -7.48909078198896E-16
     -2.76916980593632E-15  -5.00000000000000E-02  -5.00000000000000E-02   0.00000000000000E+00   0.00000000000000E+00
     -2.29808638243114E-17  -4.69739875958264E-15  -4.72037962340695E-15  -1.91476704312073E-15
      2.91111111111111E-03
      8.00000000000000E-01   8.00000000000000E-01   0.00000000000000E+00   0.00000000000000E+00   5.78535578883734E-15
      3.54439662475745E-19   5.78571022849981E-15   4.68482356154871E-15   0.00000000000000E+00   0.00000000000000E+00
      0.00000000000000E+00   0.00000000000000E+00  -1.88730404990694E-18  -7.45780992383293E-16  -7.47668296433200E-16
     -2.76916817443720E-15  -1.45555555555556E-01  -1.45555555555555E-01   0.00000000000000E+00   0.00000000000000E+00
     -2.29808936217520E-17  -5.01506103844486E-15  -5.03804193206661E-15  -1.91565538711152E-15
      6.56345679012346E-03
      8.00000000000000E-01   8.00000000000000E-01   0.00000000000000E+00   0.00000000000000E+00   6.34996373760371E-15
      9.68391940424026E-19   6.35093212954413E-15   4.68651419593717E-15   0.00000000000000E+00   0.00000000000000E+00
      0.00000000000000E+00   0.00000000000000E+00  -1.88730404883331E-18  -7.43588820532243E-16  -7.45476124581077E-16
     -2.76916311847993E-15  -3.28172839506173E-01  -3.28172839506173E-01   0.00000000000000E+00   0.00000000000000E+00
     -2.29809505200676E-17  -5.58247505444299E-15  -5.60545600496305E-15  -1.91735107745722E-15
      1.35434951989026E-02
      8.00000000000000E-01   8.00000000000000E-01   0.00000000000000E+00   0.00000000000000E+00   7.32127235844581E-15
      1.28597531370735E-18   7.32255833375951E-15   4.68972480744424E-15   0.00000000000000E+00   0.00000000000000E+00
      0.00000000000000E+00   0.00000000000000E+00  -1.88730404217544E-18  -7.40102051728174E-16  -7.41989355770349E-16
     -2.76913994430981E-15  -6.77174759945130E-01  -6.77174759945130E-01   0.00000000000000E+00   0.00000000000000E+00
     -2.29810590983102E-17  -6.55758791889085E-15  -6.58056897798916E-15  -1.92058486313442E-15
      2.35434951989026E-02
      8.00000000000000E-01   8.00000000000000E-01   0.00000000000000E+00   0.00000000000000E+00   8.53656483620728E-15
     -2.90992913580190E-19   8.53627384329370E-15   4.69423177093919E-15   0.00000000000000E+00   0.00000000000000E+00
      0.00000000000000E+00   0.00000000000000E+00  -1.88730401029918E-18  -7.36506714351678E-16  -7.38394018361977E-16
     -2.76902466806825E-15  -1.17717475994513E+00  -1.17717475994513E+00   0.00000000000000E+00   0.00000000000000E+00
     -2.29812144437431E-17  -7.77489861048797E-15  -7.79787982493171E-15  -1.92520710287094E-15
      3.35434951989026E-02
      8.00000000000000E-01   8.00000000000000E-01   0.00000000000000E+00   0.00000000000000E+00   9.58692921914730E-15
      1.29039765882407E-18   9.58821961680613E-15   4.69846057648677E-15   0.00000000000000E+00   0.00000000000000E+00
      0.00000000000000E+00   0.00000000000000E+00  -1.88730390071591E-18  -7.34703311240345E-16  -7.36590615141060E-16
     -2.76862822108970E-15  -1.67717475994513E+00  -1.67717475994513E+00   0.00000000000000E+00   0.00000000000000E+00
     -2.29813700545707E-17  -8.82864763161051E-15  -8.85162900166508E-15  -1.92983235539708E-15
      4.35434951989026E-02
      8.00000000000000E-01   8.00000000000000E-01   0.00000000000000E+00   0.00000000000000E+00   1.04600132813634E-14
      5.09332065658356E-19   1.04605226134291E-14   4.70204099773018E-15   0.00000000000000E+00   0.00000000000000E+00
      0.00000000000000E+00   0.00000000000000E+00  -1.88730359650695E-18  -7.35280618593797E-16  -7.37167922190304E-16
     -2.76753146428004E-15  -2.17717475994513E+00  -2.17717475994513E+00   0.00000000000000E+00   0.00000000000000E+00
     -2.29815275715280E-17  -9.70037316366727E-15  -9.72335469123879E-15  -1.93450953345014E-15
      5.35434951989026E-02
      8.00000000000000E-01   8.00000000000000E-01   0.00000000000000E+00   0.00000000000000E+00   1.11226799010455E-14
     -8.48797513579168E-19   1.11218311035320E-14   4.70438539090837E-15   0.00000000000000E+00   0.00000000000000E+00
      0.00000000000000E+00   0.00000000000000E+00  -1.88730292103638E-18  -7.39577621895035E-16  -7.41464924816071E-16
     -2.76507921801785E-15  -2.67717475994513E+00  -2.67717475994513E+00   0.00000000000000E+00   0.00000000000000E+00
     -2.29816892721638E-17  -1.03573844894437E-14  -1.03803661787159E-14  -1.93930617289052E-15
      6.35434951989026E-02
      8.00000000000000E-01   8.00000000000000E-01   0.00000000000000E+00   0.00000000000000E+00   1.16648173023610E-14
     -1.54595108869673E-19   1.16646627072522E-14   4.70482657555432E-15   0.00000000000000E+00   0.00000000000000E+00
      0.00000000000000E+00   0.00000000000000E+00  -1.88730169479593E-18  -7.49507385382359E-16  -7.51394687077155E-16
     -2.76056222841370E-15  -3.17717475994513E+00  -3.17717475994513E+00   0.00000000000000E+00   0.00000000000000E+00
     -2.29818565844982E-17  -1.08902861635905E-14  -1.09132680201750E-14  -1.94426434714063E-15
      7.35434951989026E-02
      8.00000000000000E-01   8.00000000000000E-01   0.00000000000000E+00   0.00000000000000E+00   1.21075400216870E-14
     -7.71423734705956E-18   1.20998257843399E-14   4.70310050859581E-15   0.00000000000000E+00   0.00000000000000E+00
      0.00000000000000E+00   0.00000000000000E+00  -1.88729987923495E-18  -7.67435240750941E-16  -7.69322540630176E-16
     -2.75368608495109E-15  -3.67717475994513E+00  -3.67717475994513E+00   0.00000000000000E+00   0.00000000000000E+00
     -2.29820305473685E-17  -1.13075212131624E-14  -1.13305032437097E-14  -1.94941442364472E-15
      8.35434951989026E-02
      8.00000000000000E-01   8.00000000000000E-01   0.00000000000000E+00   0.00000000000000E+00   1.24543683254683E-14
     -2.29963834107151E-18   1.24520686871272E-14   4.69954455681194E-15   0.00000000000000E+00   0.00000000000000E+00
      0.00000000000000E+00   0.00000000000000E+00  -1.88729760822405E-18  -7.94718906824768E-16  -7.96606204432992E-16
     -2.74476351091248E-15  -4.17717475994513E+00  -4.17717475994513E+00   0.00000000000000E+00   0.00000000000000E+00
     -2.29822120108401E-17  -1.16324802706834E-14  -1.16554624826942E-14  -1.95478104589947E-15
      9.35434951989026E-02
      8.00000000000000E-01   8.00000000000000E-01   0.00000000000000E+00   0.00000000000000E+00   1.27202838924836E-14
     -2.13844740746005E-18   1.27181454450761E-14   4.69469356544429E-15   0.00000000000000E+00   0.00000000000000E+00
      0.00000000000000E+00   0.00000000000000E+00  -1.88729504771248E-18  -8.28026687278476E-16  -8.29913982326188E-16
     -2.73431272100887E-15  -4.67717475994513E+00  -4.67717475994513E+00   0.00000000000000E+00   0.00000000000000E+00
     -2.29824015578225E-17  -1.18652490611921E-14  -1.18882314627499E-14  -1.96038084443541E-15
      1.03543495198903E-01
      8.00000000000000E-01   8.00000000000000E-01   0.00000000000000E+00   0.00000000000000E+00   1.29162275622948E-14
     -4.91940061722633E-18   1.29113081616776E-14   4.68894002758828E-15   0.00000000000000E+00   0.00000000000000E+00
      0.00000000000000E+00   0.00000000000000E+00  -1.88729230555746E-18  -8.56920356795539E-16  -8.58807649101096E-16
     -2.72271794368138E-15  -5.17717475994513E+00  -5.17717475994513E+00   0.00000000000000E+00   0.00000000000000E+00
     -2.29825994908215E-17  -1.20295179130856E-14  -1.20525005125765E-14  -1.96622208390689E-15
      1.13543495198903E-01
      8.00000000000000E-01   8.00000000000000E-01   0.00000000000000E+00   0.00000000000000E+00   1.30538132520387E-14
     -1.27184916579230E-18   1.30525414028729E-14   4.68251236909435E-15   0.00000000000000E+00   0.00000000000000E+00
      0.00000000000000E+00   0.00000000000000E+00  -1.88728943865054E-18  -8.73958066275267E-16  -8.75845355713918E-16
     -2.71020481270913E-15  -5.67717475994513E+00  -5.67717475994513E+00   0.00000000000000E+00   0.00000000000000E+00
     -2.29828059287106E-17  -1.21537132412302E-14  -1.21766960471589E-14  -1.97230755638521E-15
      1.23543495198903E-01
      8.00000000000000E-01   8.00000000000000E-01   0.00000000000000E+00   0.00000000000000E+00   1.31518463916781E-14
     -3.51195255311515E-18   1.31483344391250E-14   4.67554046902757E-15   0.00000000000000E+00   0.00000000000000E+00
      0.00000000000000E+00   0.00000000000000E+00  -1.88728647609692E-18  -8.80935779571701E-16  -8.82823066047798E-16
     -2.69690324679636E-15  -6.17717475994513E+00  -6.17717475994513E+00   0.00000000000000E+00   0.00000000000000E+00
     -2.29830208954824E-17  -1.22425283521817E-14  -1.22655113730772E-14  -1.97863722223122E-15
      1.33543495198903E-01
      8.00000000000000E-01   8.00000000000000E-01   0.00000000000000E+00   0.00000000000000E+00   1.32261515118823E-14
     -1.28717197093944E-17   1.32132797921729E-14   4.66810186965552E-15   0.00000000000000E+00   0.00000000000000E+00
      0.00000000000000E+00   0.00000000000000E+00  -1.88728343524251E-18  -8.81913249196479E-16  -8.83800532631722E-16
     -2.68289220315454E-15  -6.67717475994513E+00  -6.67717475994513E+00   0.00000000000000E+00   0.00000000000000E+00
     -2.29832443692574E-17  -1.23064960151719E-14  -1.23294792595411E-14  -1.98520966650098E-15
      1.43543495198903E-01
      8.00000000000000E-01   8.00000000000000E-01   0.00000000000000E+00   0.00000000000000E+00   1.32857872881822E-14
      1.48416036170897E-17   1.33006288917992E-14   4.66024544608571E-15   0.00000000000000E+00   0.00000000000000E+00
      0.00000000000000E+00   0.00000000000000E+00  -1.88728032630661E-18  -8.79493714817389E-16  -8.81380995143695E-16
     -2.66822263961753E-15  -7.17717475994513E+00  -7.17717475994513E+00   0.00000000000000E+00   0.00000000000000E+00
     -2.29834763061002E-17  -1.23962644203494E-14  -1.24192478966555E-14  -1.99202280646817E-15
      1.53543495198903E-01
      8.00000000000000E-01   8.00000000000000E-01   0.00000000000000E+00   0.00000000000000E+00   1.33353603233227E-14
     -8.39099230282944E-18   1.33269693310198E-14   4.65200301309255E-15   0.00000000000000E+00   0.00000000000000E+00
      0.00000000000000E+00   0.00000000000000E+00  -1.88727715675848E-18  -8.74889102154342E-16  -8.76776379311100E-16
     -2.65292877581288E-15  -7.67717475994513E+00  -7.67717475994513E+00   0.00000000000000E+00   0.00000000000000E+00
     -2.29837166516517E-17  -1.24272092350571E-14  -1.24501929517087E-14  -1.99907423727966E-15
      1.63543495198903E-01
      8.00000000000000E-01   8.00000000000000E-01   0.00000000000000E+00   0.00000000000000E+00   1.33773420134347E-14
     -2.94343495379823E-18   1.33743985784809E-14   4.64339518345201E-15   0.00000000000000E+00   0.00000000000000E+00
      0.00000000000000E+00   0.00000000000000E+00  -1.88727393265268E-18  -8.68700915092831E-16  -8.70588189025484E-16
     -2.63703377500345E-15  -8.17717475994513E+00  -8.17717475994513E+00   0.00000000000000E+00   0.00000000000000E+00
     -2.29839653470675E-17  -1.24808264241083E-14  -1.25038103894554E-14  -2.00636140844857E-15
      1.73543495198903E-01
      8.00000000000000E-01   8.00000000000000E-01   0.00000000000000E+00   0.00000000000000E+00   1.34132988899112E-14
      1.67688250480617E-18   1.34149757724160E-14   4.63443436230650E-15   0.00000000000000E+00   0.00000000000000E+00
      0.00000000000000E+00   0.00000000000000E+00  -1.88727065744819E-18  -8.61265091282927E-16  -8.63152361940375E-16
     -2.62055264762007E-15  -8.67717475994513E+00  -8.67717475994513E+00   0.00000000000000E+00   0.00000000000000E+00
     -2.29842223320622E-17  -1.25288391881436E-14  -1.25518234104756E-14  -2.01388171468644E-15
      1.83543495198903E-01
      8.00000000000000E-01   8.00000000000000E-01   0.00000000000000E+00   0.00000000000000E+00   1.34443320820843E-14
     -1.66183160593987E-18   1.34426702504783E-14   4.62512610373653E-15   0.00000000000000E+00   0.00000000000000E+00
      0.00000000000000E+00   0.00000000000000E+00  -1.88726733499087E-18  -8.52679042057071E-16  -8.54566309392062E-16
     -2.60349356820554E-15  -9.17717475994513E+00  -9.17717475994513E+00   0.00000000000000E+00   0.00000000000000E+00
     -2.29844875462366E-17  -1.25651194535400E-14  -1.25881039410863E-14  -2.02163253553098E-15
      1.93543495198903E-01
      8.00000000000000E-01   8.00000000000000E-01   0.00000000000000E+00   0.00000000000000E+00   1.34713585862394E-14
      1.20704536191611E-17   1.34834290398586E-14   4.61546935622255E-15   0.00000000000000E+00   0.00000000000000E+00
      0.00000000000000E+00   0.00000000000000E+00  -1.88726396748080E-18  -8.42992080542894E-16  -8.44879344510375E-16
     -2.58585811706723E-15  -9.67717475994513E+00  -9.67717475994513E+00   0.00000000000000E+00   0.00000000000000E+00
     -2.29847609291738E-17  -1.26155649344191E-14  -1.26385496953482E-14  -2.02961123915533E-15
      2.03543495198903E-01
      8.00000000000000E-01   8.00000000000000E-01   0.00000000000000E+00   0.00000000000000E+00   1.34952894401614E-14
     -1.25863813816668E-17   1.34827030587797E-14   4.60545587924544E-15   0.00000000000000E+00   0.00000000000000E+00
      0.00000000000000E+00   0.00000000000000E+00  -1.88726055730974E-18  -8.32076054256001E-16  -8.33963314813310E-16
     -2.56764071859699E-15  -1.01771747599451E+01  -1.01771747599451E+01   0.00000000000000E+00   0.00000000000000E+00
     -2.29850424196680E-17  -1.26257547015468E-14  -1.26487397439664E-14  -2.03781516064844E-15
      2.13543495198903E-01
      8.00000000000000E-01   8.00000000000000E-01   0.00000000000000E+00   0.00000000000000E+00   1.35170056228774E-14
     -1.19019594055799E-17   1.35051036634719E-14   4.59506915100809E-15   0.00000000000000E+00   0.00000000000000E+00
      0.00000000000000E+00   0.00000000000000E+00  -1.88725710593355E-18  -8.19117740707026E-16  -8.21004997812959E-16
     -2.54882758313876E-15  -1.06771747599451E+01  -1.06771747599451E+01   0.00000000000000E+00   0.00000000000000E+00
     -2.29853319545196E-17  -1.26611133337044E-14  -1.26840986656589E-14  -2.04624156786932E-15
      2.23543495198903E-01
      8.00000000000000E-01   8.00000000000000E-01   0.00000000000000E+00   0.00000000000000E+00   1.35371138330477E-14
     -8.71128941382068E-18   1.35284025436339E-14   4.58428352076835E-15   0.00000000000000E+00   0.00000000000000E+00
      0.00000000000000E+00   0.00000000000000E+00  -1.88725361403540E-18  -8.01517822602534E-16  -8.03405076216569E-16
     -2.52939587936297E-15  -1.11771747599451E+01  -1.11771747599451E+01   0.00000000000000E+00   0.00000000000000E+00
     -2.29856294678001E-17  -1.27020118379495E-14  -1.27249974674173E-14  -2.05488764140538E-15
      2.33543495198903E-01
      8.00000000000000E-01   8.00000000000000E-01   0.00000000000000E+00   0.00000000000000E+00   1.35560198014146E-14
      7.04295220073591E-18   1.35630627536153E-14   4.57306560848874E-15   0.00000000000000E+00   0.00000000000000E+00
      0.00000000000000E+00   0.00000000000000E+00  -1.88725008252869E-18  -7.69520674592900E-16  -7.71407924675429E-16
     -2.50931507826846E-15  -1.16771747599451E+01  -1.16771747599451E+01   0.00000000000000E+00   0.00000000000000E+00
     -2.29859348927250E-17  -1.27686688940472E-14  -1.27916548289399E-14  -2.06375053022029E-15
      2.43543495198903E-01
      8.00000000000000E-01   8.00000000000000E-01   0.00000000000000E+00   0.00000000000000E+00   1.35740181727325E-14
      3.44224980916275E-18   1.35774604225416E-14   4.56138239198995E-15   0.00000000000000E+00   0.00000000000000E+00
      0.00000000000000E+00   0.00000000000000E+00  -1.88724651193477E-18  -6.90109711453306E-16  -6.91996957965240E-16
     -2.48855478427711E-15  -1.21771747599451E+01  -1.21771747599451E+01   0.00000000000000E+00   0.00000000000000E+00
     -2.29862481704645E-17  -1.28624772164059E-14  -1.28854634645764E-14  -2.07282760771283E-15
      2.53543495198903E-01
      8.00000000000000E-01   8.00000000000000E-01   0.00000000000000E+00   0.00000000000000E+00   1.35912671314476E-14
     -1.58886829423304E-18   1.35896782631534E-14   4.54922203190479E-15   0.00000000000000E+00   0.00000000000000E+00
      0.00000000000000E+00   0.00000000000000E+00  -1.88724290579113E-18  -4.51171940960529E-16  -4.53059183866320E-16
     -2.46710495350870E-15  -1.26771747599451E+01  -1.26771747599451E+01   0.00000000000000E+00   0.00000000000000E+00
     -2.29865692711614E-17  -1.31136325100159E-14  -1.31366190792871E-14  -2.08211707839610E-15
      2.63543495198903E-01
      8.00000000000000E-01   8.00000000000000E-01   0.00000000000000E+00   0.00000000000000E+00   1.36077276610996E-14
     -3.34939626010668E-17   1.35742336984986E-14   4.53662531593605E-15   0.00000000000000E+00   0.00000000000000E+00
      0.00000000000000E+00   0.00000000000000E+00  -1.88723926875456E-18   3.18542642780655E-16   3.16655403511901E-16
     -2.44500649163543E-15  -1.31771747599451E+01  -1.31771747599451E+01   0.00000000000000E+00   0.00000000000000E+00
     -2.29868982234634E-17  -1.38679022037870E-14  -1.38908891020105E-14  -2.09161882430063E-15
      2.73543495198903E-01
      8.00000000000000E-01   8.00000000000000E-01   0.00000000000000E+00   0.00000000000000E+00   1.36231362061513E-14
     -1.17809991431306E-17   1.36113552070081E-14   4.52370210305530E-15   0.00000000000000E+00   0.00000000000000E+00
      0.00000000000000E+00   0.00000000000000E+00  -1.88723560821439E-18   2.81284109932419E-15   2.81095386371598E-15
     -2.42236736752641E-15  -1.36771747599451E+01  -1.36771747599451E+01   0.00000000000000E+00   0.00000000000000E+00
     -2.29872351264446E-17  -1.63993218355977E-14  -1.64223090707241E-14  -2.10133473552889E-15
      2.83543495198903E-01
      8.00000000000000E-01   8.00000000000000E-01   0.00000000000000E+00   0.00000000000000E+00   1.36370550482535E-14
      1.65379662222765E-17   1.36535930144758E-14   4.51060386064499E-15   0.00000000000000E+00   0.00000000000000E+00
      0.00000000000000E+00   0.00000000000000E+00  -1.88723193081243E-18   1.07405644673625E-14   1.07386772354317E-14
     -2.39933607140089E-15  -1.41771747599451E+01  -1.41771747599451E+01   0.00000000000000E+00   0.00000000000000E+00
     -2.29875801181643E-17  -2.43692826697893E-14  -2.43922702499075E-14  -2.11126778924408E-15
      2.93543495198903E-01
      8.00000000000000E-01   8.00000000000000E-01   0.00000000000000E+00   0.00000000000000E+00   1.36489325658727E-14
      3.19906771349751E-17   1.36809232430077E-14   4.49747250851819E-15   0.00000000000000E+00   0.00000000000000E+00
      0.00000000000000E+00   0.00000000000000E+00  -1.88722822360840E-18   3.52071953687438E-14   3.52053081405202E-14
     -2.37605194130138E-15  -1.46771747599451E+01  -1.46771747599451E+01   0.00000000000000E+00   0.00000000000000E+00
     -2.29879333243954E-17  -4.88632434502035E-14  -4.88862313835279E-14  -2.12142056721680E-15
      3.03543495198903E-01
      8.00000000000000E-01   8.00000000000000E-01   0.00000000000000E+00   0.00000000000000E+00   1.36580454903288E-14
      2.36336276064168E-17   1.36816791179352E-14   4.48441145867244E-15   0.00000000000000E+00  -9.18447372075268E-17
      0.00000000000000E+00   0.00000000000000E+00  -1.88722439909026E-18   1.08215733464810E-13   1.08213846240411E-13
     -2.35261696627049E-15  -1.51771747599451E+01  -1.51771747599451E+01   0.00000000000000E+00   0.00000000000000E+00
     -2.29882948319191E-17  -1.21872537063514E-13  -1.21895525358346E-13  -2.13179449240197E-15
      3.13543495198903E-01
      8.00000000000000E-01   8.00000000000000E-01   0.00000000000000E+00   0.00000000000000E+00   1.36632361310720E-14
     -1.83350394823671E-17   1.36449010915897E-14   4.47148696774386E-15   0.00000000000000E+00  -2.75534211622580E-16
      0.00000000000000E+00   0.00000000000000E+00  -1.88722005915258E-18   3.18412142548030E-13   3.18410255327971E-13
     -2.32909703739194E-15  -1.56771747599451E+01  -1.56771747599451E+01   0.00000000000000E+00   0.00000000000000E+00
     -2.29886646917634E-17  -3.32032167754868E-13  -3.32055156419559E-13  -2.14238993035190E-15
      3.23543495198903E-01
      8.00000000000000E-01   8.00000000000000E-01   0.00000000000000E+00   0.00000000000000E+00   1.36622958162982E-14
      3.77343734968875E-18   1.36660692536479E-14   4.45874116871854E-15   0.00000000000000E+00  -9.18447372075267E-16
      0.00000000000000E+00   0.00000000000000E+00  -1.88721408916002E-18   9.01509270658964E-13   9.01507383444875E-13
     -2.30553455609712E-15  -1.61771747599451E+01  -1.61771747599451E+01   0.00000000000000E+00   0.00000000000000E+00
     -2.29890429337289E-17  -9.15150463655589E-13  -9.15173452698523E-13  -2.15320661262144E-15
      3.33543495198903E-01
      8.00000000000000E-01   8.00000000000000E-01   0.00000000000000E+00   0.00000000000000E+00   1.36505812030151E-14
     -1.72348257941835E-17   1.36333463772209E-14   4.44620422594882E-15   0.00000000000000E+00  -2.47980790460322E-15
      0.00000000000000E+00   0.00000000000000E+00  -1.88720252585603E-18   2.45824837418730E-12   2.45824648698477E-12
     -2.28196014980985E-15  -1.66771747599451E+01  -1.66771747599451E+01   0.00000000000000E+00   0.00000000000000E+00
     -2.29894295816372E-17  -2.47185684393241E-12  -2.47187983336199E-12  -2.16424407613897E-15
      3.43543495198903E-01
      8.00000000000000E-01   8.00000000000000E-01   0.00000000000000E+00   0.00000000000000E+00   1.36180730302529E-14
      1.11719082450261E-17   1.36292449384979E-14   4.43390321474981E-15   0.00000000000000E+00  -6.42913160452687E-15
      0.00000000000000E+00   0.00000000000000E+00  -1.88717472786205E-18   6.45320377096025E-12   6.45320188378552E-12
     -2.25840107288116E-15  -1.71771747599451E+01  -1.71771747599451E+01   0.00000000000000E+00   0.00000000000000E+00
     -2.29898246701677E-17  -6.46680813889934E-12  -6.46683112872401E-12  -2.17550214186866E-15
      3.53543495198903E-01
      8.00000000000000E-01   8.00000000000000E-01   0.00000000000000E+00   0.00000000000000E+00   1.35438504429424E-14
     -4.15047417638043E-17   1.35023457011786E-14   4.42186920378541E-15   0.00000000000000E+00  -1.62565184857322E-14
      0.00000000000000E+00   0.00000000000000E+00  -1.88710326174303E-18   1.62927548086802E-11   1.62927529215770E-11
     -2.23488757285886E-15  -1.76771747599451E+01  -1.76771747599451E+01   0.00000000000000E+00   0.00000000000000E+00
     -2.29902282703110E-17  -1.63062322770499E-11  -1.63062552672782E-11  -2.18698163092656E-15
      3.63543495198903E-01
      8.00000000000000E-01   8.00000000000000E-01   0.00000000000000E+00   0.00000000000000E+00   1.33878416197166E-14
     -1.69655017830092E-17   1.33708761179336E-14   4.41014457130747E-15   0.00000000000000E+00  -3.94932369992365E-14
      0.00000000000000E+00   0.00000000000000E+00  -1.88692524215221E-18   3.95065480697168E-11   3.95065461827915E-11
     -2.21145892890490E-15  -1.81771747599451E+01  -1.81771747599451E+01   0.00000000000000E+00   0.00000000000000E+00
     -2.29906405351023E-17  -3.95198940682687E-11  -3.95199170589093E-11  -2.19868564240257E-15
      3.73543495198903E-01
      8.00000000000000E-01   8.00000000000000E-01   0.00000000000000E+00   0.00000000000000E+00   1.30847133002413E-14
     -1.46453475678522E-17   1.30700679526735E-14   4.39879231178102E-15   0.00000000000000E+00  -9.18447372075268E-14
      0.00000000000000E+00   0.00000000000000E+00  -1.88651793089374E-18   9.18239125189543E-11   9.18239106324363E-11
     -2.18817046657761E-15  -1.86771747599451E+01  -1.86771747599451E+01   0.00000000000000E+00   0.00000000000000E+00
     -2.29910617819859E-17  -9.18369577093273E-11  -9.18369807003891E-11  -2.21062184520341E-15
      3.83543495198903E-01
      8.00000000000000E-01   8.00000000000000E-01   0.00000000000000E+00   0.00000000000000E+00   1.25564162416556E-14
     -1.32215757717619E-17   1.25431946658839E-14   4.38790835320257E-15   0.00000000000000E+00  -2.04079006075124E-13
      0.00000000000000E+00   0.00000000000000E+00  -1.88569951493343E-18   2.04038428961248E-10   2.04038427075549E-10
     -2.16510208125369E-15  -1.91771747599451E+01  -1.91771747599449E+01   0.00000000000000E+00   0.00000000000000E+00
     -2.29914926297808E-17  -2.04050947278721E-10  -2.04050970270214E-10  -2.22280627194890E-15
      3.93543495198903E-01
      8.00000000000000E-01   8.00000000000000E-01   0.00000000000000E+00   0.00000000000000E+00   1.17622059043519E-14
      3.36704538300928E-17   1.17958763581820E-14   4.37763596761157E-15   0.00000000000000E+00  -4.31945799086998E-13
      0.00000000000000E+00   0.00000000000000E+00  -1.88430953522132E-18   4.31962690612481E-10   4.31962688728172E-10
     -2.14236721005401E-15  -1.96771747599451E+01  -1.96771747599447E+01   0.00000000000000E+00   0.00000000000000E+00
     -2.29919341961211E-17  -4.31974461612597E-10  -4.31974484604531E-10  -2.23526875755753E-15
      4.03543495198903E-01
      8.00000000000000E-01   8.00000000000000E-01   0.00000000000000E+00   0.00000000000000E+00   1.07562235375925E-14
      1.94334955040784E-17   1.07756570330966E-14   4.36817735233204E-15   0.00000000000000E+00  -8.67657232399505E-13
      0.00000000000000E+00   0.00000000000000E+00  -1.88234563043057E-18   8.67696013578813E-10   8.67696011696467E-10
     -2.12011834823229E-15  -2.01771747599451E+01  -2.01771747599443E+01   0.00000000000000E+00   0.00000000000000E+00
     -2.29923883198968E-17  -8.67706764361108E-10  -8.67706787353496E-10  -2.24805900409974E-15
      4.13543495198903E-01
      8.00000000000000E-01   8.00000000000000E-01   0.00000000000000E+00   0.00000000000000E+00   9.66981338717444E-15
     -1.31415278505397E-17   9.65667185932390E-15   4.35979238832256E-15   0.00000000000000E+00  -1.64677613813095E-12
      0.00000000000000E+00   0.00000000000000E+00  -1.87998758342950E-18   1.64673481285877E-09   1.64673481097878E-09
     -2.09854215154709E-15  -2.06771747599451E+01  -2.06771747599435E+01   0.00000000000000E+00   0.00000000000000E+00
     -2.29928577003421E-17  -1.64674444465778E-09  -1.64674446765064E-09  -2.26125023677546E-15
      4.23543495198903E-01
      8.00000000000000E-01   8.00000000000000E-01   0.00000000000000E+00   0.00000000000000E+00   8.62734609676428E-15
      1.48144301774553E-17   8.64216052694173E-15   4.35277387139618E-15   0.00000000000000E+00  -2.94270538012916E-12
      0.00000000000000E+00   0.00000000000000E+00  -1.87745484637938E-18   2.94274127508470E-09   2.94274127320724E-09
     -2.07783786722015E-15  -2.11771747599451E+01  -2.11771747599422E+01   0.00000000000000E+00   0.00000000000000E+00
     -2.29933457919612E-17  -2.94274989237441E-09  -2.94274991536776E-09  -2.27493600417602E-15
      4.33543495198903E-01
      8.00000000000000E-01   8.00000000000000E-01   0.00000000000000E+00   0.00000000000000E+00   7.69926772150246E-15
      7.94693028674405E-18   7.70721465178920E-15   4.34739929478397E-15   0.00000000000000E+00  -4.94537987493928E-12
      0.00000000000000E+00   0.00000000000000E+00  -1.87488892101486E-18   4.94541075400083E-09   4.94541075212594E-09
     -2.05818151148054E-15  -2.16771747599451E+01  -2.16771747599402E+01   0.00000000000000E+00   0.00000000000000E+00
     -2.29938563676377E-17  -4.94541843634679E-09  -4.94541845934064E-09  -2.28921778330342E-15
      4.43543495198903E-01
      8.00000000000000E-01   8.00000000000000E-01   0.00000000000000E+00   0.00000000000000E+00   6.90644972321923E-15
      1.50523638990204E-17   6.92150208711825E-15   4.34387786659957E-15   0.00000000000000E+00  -7.82801879693471E-12
      0.00000000000000E+00   0.00000000000000E+00  -1.87234330405226E-18   7.82801688603549E-09   7.82801688416314E-09
     -2.03969068132785E-15  -2.21771747599451E+01  -2.21771747599373E+01   0.00000000000000E+00   0.00000000000000E+00
     -2.29943928818282E-17  -7.82802378267071E-09  -7.82802380566510E-09  -2.30418718527172E-15
      4.53543495198903E-01
      8.00000000000000E-01   8.00000000000000E-01   0.00000000000000E+00   0.00000000000000E+00   6.23650699475199E-15
      1.31094016720156E-18   6.23781793491919E-15   4.34231878651254E-15   0.00000000000000E+00  -1.17200313808409E-11
      0.00000000000000E+00   0.00000000000000E+00  -1.86981228085929E-18   1.17200329908096E-08   1.17200329889398E-08
     -2.02240755382658E-15  -2.26771747599451E+01  -2.26771747599334E+01   0.00000000000000E+00   0.00000000000000E+00
     -2.29949579366206E-17  -1.17200392037626E-08  -1.17200392267576E-08  -2.31991123268599E-15
      4.63543495198903E-01
      8.00000000000000E-01   8.00000000000000E-01   0.00000000000000E+00   0.00000000000000E+00   5.66333281008918E-15
      3.82971106451914E-17   5.70162992073438E-15   4.34273216560161E-15   0.00000000000000E+00  -1.66962710874819E-11