DF-ISE text

Info {
  version   = 1.0
  type      = xyplot
  datasets  = [
    "time"
    "Ntop OuterVoltage" "Ntop InnerVoltage" "Ntop QuasiFermiPotential" "Ntop DisplacementCurrent" "Ntop eCurrent"
    "Ntop hCurrent" "Ntop TotalCurrent" "Ntop Charge" "Ptop OuterVoltage" "Ptop InnerVoltage"
    "Ptop QuasiFermiPotential" "Ptop DisplacementCurrent" "Ptop eCurrent" "Ptop hCurrent" "Ptop TotalCurrent"
    "Ptop Charge" "Pbot OuterVoltage" "Pbot InnerVoltage" "Pbot QuasiFermiPotential" "Pbot DisplacementCurrent"
    "Pbot eCurrent" "Pbot hCurrent" "Pbot TotalCurrent" "Pbot Charge" ]
  functions = [
    Time
    OuterVoltage InnerVoltage QuasiFermiPotential DisplacementCurrent eCurrent
    hCurrent TotalCurrent Charge OuterVoltage InnerVoltage
    QuasiFermiPotential DisplacementCurrent eCurrent hCurrent TotalCurrent
    Charge OuterVoltage InnerVoltage QuasiFermiPotential DisplacementCurrent
    eCurrent hCurrent TotalCurrent Charge ]
}

Data {
      1.00000000000000E-03
      8.00000000000000E-01   8.00000000000000E-01   0.00000000000000E+00   0.00000000000000E+00   6.33074400138555E-15
      1.74073666475436E-19   6.33091807505203E-15   4.25718242849650E-15   0.00000000000000E+00   0.00000000000000E+00
      0.00000000000000E+00   0.00000000000000E+00  -1.65805265232040E-18  -1.60838750755694E-15  -1.61004556020926E-15
     -2.34241537555867E-15  -5.00000000000000E-02  -5.00000000000000E-02   0.00000000000000E+00   0.00000000000000E+00
     -2.29808638246407E-17  -4.69789165101812E-15  -4.72087251484277E-15  -1.91476705293783E-15
      2.91111111111111E-03
      8.00000000000000E-01   8.00000000000000E-01   0.00000000000000E+00   0.00000000000000E+00   6.64679804092154E-15
     -3.73446439409183E-19   6.64642459448213E-15   4.25806923509273E-15   0.00000000000000E+00   0.00000000000000E+00
      0.00000000000000E+00   0.00000000000000E+00  -1.65805265166012E-18  -1.60716393114849E-15  -1.60882198380015E-15
     -2.34241383375193E-15  -1.45555555555556E-01  -1.45555555555555E-01   0.00000000000000E+00   0.00000000000000E+00
     -2.29808936222295E-17  -5.01462171705977E-15  -5.03760261068199E-15  -1.91565540134079E-15
      6.56345679012346E-03
      8.00000000000000E-01   8.00000000000000E-01   0.00000000000000E+00   0.00000000000000E+00   7.21138952232264E-15
      7.07407498821802E-19   7.21209692982146E-15   4.25976016102397E-15   0.00000000000000E+00   0.00000000000000E+00
      0.00000000000000E+00   0.00000000000000E+00  -1.65805265014102E-18  -1.60501504663199E-15  -1.60667309928214E-15
     -2.34240905570948E-15  -3.28172839506173E-01  -3.28172839506173E-01   0.00000000000000E+00   0.00000000000000E+00
     -2.29809505210022E-17  -5.58244288001833E-15  -5.60542383053933E-15  -1.91735110531449E-15
      1.35434951989026E-02
      8.00000000000000E-01   8.00000000000000E-01   0.00000000000000E+00   0.00000000000000E+00   8.18262371808720E-15
     -9.11978546517779E-19   8.18171173954068E-15   4.26297211089413E-15   0.00000000000000E+00   0.00000000000000E+00
      0.00000000000000E+00   0.00000000000000E+00  -1.65805264327448E-18  -1.60157412551856E-15  -1.60323217816183E-15
     -2.34238715795462E-15  -6.77174759945130E-01  -6.77174759945130E-01   0.00000000000000E+00   0.00000000000000E+00
     -2.29810591013266E-17  -6.55549850227752E-15  -6.57847956137885E-15  -1.92058495293951E-15
      2.35434951989026E-02
      8.00000000000000E-01   8.00000000000000E-01   0.00000000000000E+00   0.00000000000000E+00   9.39756320680437E-15
      1.66325118278537E-20   9.39757983931620E-15   4.26748579078161E-15   0.00000000000000E+00   0.00000000000000E+00
      0.00000000000000E+00   0.00000000000000E+00  -1.65805261094338E-18  -1.59803126394752E-15  -1.59968931655846E-15
     -2.34227829708292E-15  -1.17717475994513E+00  -1.17717475994513E+00   0.00000000000000E+00   0.00000000000000E+00
     -2.29812144568851E-17  -7.77490930830084E-15  -7.79789052275772E-15  -1.92520749369869E-15
      3.35434951989026E-02
      8.00000000000000E-01   8.00000000000000E-01   0.00000000000000E+00   0.00000000000000E+00   1.04468553671238E-14
      1.93870203560057E-18   1.04487940691594E-14   4.27173823133782E-15   0.00000000000000E+00   0.00000000000000E+00
      0.00000000000000E+00   0.00000000000000E+00  -1.65805249899351E-18  -1.59621413475555E-15  -1.59787218725454E-15
     -2.34190451762684E-15  -1.67717475994513E+00  -1.67717475994513E+00   0.00000000000000E+00   0.00000000000000E+00
     -2.29813701002929E-17  -8.82794051180458E-15  -8.85092188190487E-15  -1.92983371371098E-15
      4.35434951989026E-02
      8.00000000000000E-01   8.00000000000000E-01   0.00000000000000E+00   0.00000000000000E+00   1.13177027165314E-14
      2.03398096656075E-18   1.13197366974980E-14   4.27538673396005E-15   0.00000000000000E+00   0.00000000000000E+00
      0.00000000000000E+00   0.00000000000000E+00  -1.65805219249807E-18  -1.59670622235552E-15  -1.59836427454802E-15
     -2.34087348856471E-15  -2.17717475994513E+00  -2.17717475994513E+00   0.00000000000000E+00   0.00000000000000E+00
     -2.29815276966004E-17  -9.69839089525335E-15  -9.72137242294995E-15  -1.93451324539535E-15
      5.35434951989026E-02
      8.00000000000000E-01   8.00000000000000E-01   0.00000000000000E+00   0.00000000000000E+00   1.19767040424341E-14
      2.44113989389296E-18   1.19791451823280E-14   4.27789125983527E-15   0.00000000000000E+00   0.00000000000000E+00
      0.00000000000000E+00   0.00000000000000E+00  -1.65805151065744E-18  -1.60065683268050E-15  -1.60231488419116E-15
     -2.33857672290289E-15  -2.67717475994513E+00  -2.67717475994513E+00   0.00000000000000E+00   0.00000000000000E+00
     -2.29816895542657E-17  -1.03538486085826E-14  -1.03768302981368E-14  -1.93931453693238E-15
      6.35434951989026E-02
      8.00000000000000E-01   8.00000000000000E-01   0.00000000000000E+00   0.00000000000000E+00   1.25128464639830E-14
     -1.53291032609089E-18   1.25113135536569E-14   4.27863617542376E-15   0.00000000000000E+00   0.00000000000000E+00
      0.00000000000000E+00   0.00000000000000E+00  -1.65805027703542E-18  -1.60980246962116E-15  -1.61146051989819E-15
     -2.33435582032652E-15  -3.17717475994513E+00  -3.17717475994513E+00   0.00000000000000E+00   0.00000000000000E+00
     -2.29818571249525E-17  -1.08768711766338E-14  -1.08998530337587E-14  -1.94428035509723E-15
      7.35434951989026E-02
      8.00000000000000E-01   8.00000000000000E-01   0.00000000000000E+00   0.00000000000000E+00   1.29499658325389E-14
      7.55539010299216E-18   1.29575212226419E-14   4.27736499069687E-15   0.00000000000000E+00   0.00000000000000E+00
      0.00000000000000E+00   0.00000000000000E+00  -1.65804843997176E-18  -1.62631358177562E-15  -1.62797163021560E-15
     -2.32792408085064E-15  -3.67717475994513E+00  -3.67717475994513E+00   0.00000000000000E+00   0.00000000000000E+00
     -2.29820314424936E-17  -1.13065675609839E-14  -1.13295495924264E-14  -1.94944090984623E-15
      8.35434951989026E-02
      8.00000000000000E-01   8.00000000000000E-01   0.00000000000000E+00   0.00000000000000E+00   1.32923395656936E-14
     -9.76444581254437E-18   1.32825751198811E-14   4.27437588894149E-15   0.00000000000000E+00   0.00000000000000E+00
      0.00000000000000E+00   0.00000000000000E+00  -1.65804612960365E-18  -1.65154542653142E-15  -1.65320347266103E-15
     -2.31955577602610E-15  -4.17717475994513E+00  -4.17717475994513E+00   0.00000000000000E+00   0.00000000000000E+00
     -2.29822133325157E-17  -1.16063894338876E-14  -1.16293716472201E-14  -1.95482011291537E-15
      9.35434951989026E-02
      8.00000000000000E-01   8.00000000000000E-01   0.00000000000000E+00   0.00000000000000E+00   1.35560413171432E-14
      8.82632837973341E-19   1.35569239499812E-14   4.27017235831288E-15   0.00000000000000E+00   0.00000000000000E+00
      0.00000000000000E+00   0.00000000000000E+00  -1.65804350926195E-18  -1.68310680787784E-15  -1.68476485138710E-15
     -2.30973814805537E-15  -4.67717475994513E+00  -4.67717475994513E+00   0.00000000000000E+00   0.00000000000000E+00
     -2.29824033651659E-17  -1.18491766952289E-14  -1.18721590985941E-14  -1.96043421025751E-15
      1.03543495198903E-01
      8.00000000000000E-01   8.00000000000000E-01   0.00000000000000E+00   0.00000000000000E+00   1.37526818596955E-14
      3.72682241162747E-18   1.37564086821072E-14   4.26513834399130E-15   0.00000000000000E+00   0.00000000000000E+00
      0.00000000000000E+00   0.00000000000000E+00  -1.65804069586961E-18  -1.71160433354624E-15  -1.71326237424211E-15
     -2.29884680898738E-15  -5.17717475994513E+00  -5.17717475994513E+00   0.00000000000000E+00   0.00000000000000E+00
     -2.29826018455041E-17  -1.20201637060196E-14  -1.20431463078651E-14  -1.96629153500392E-15
      1.13543495198903E-01
      8.00000000000000E-01   8.00000000000000E-01   0.00000000000000E+00   0.00000000000000E+00   1.38924418729126E-14
     -3.83271234720467E-18   1.38886091605654E-14   4.25950372764803E-15   0.00000000000000E+00   0.00000000000000E+00
      0.00000000000000E+00   0.00000000000000E+00  -1.65803774890842E-18  -1.72917728596296E-15  -1.73083532371187E-15
     -2.28710862383265E-15  -5.67717475994513E+00  -5.67717475994513E+00   0.00000000000000E+00   0.00000000000000E+00
     -2.29828089002801E-17  -1.21347910279532E-14  -1.21577738368535E-14  -1.97239510381539E-15
      1.23543495198903E-01
      8.00000000000000E-01   8.00000000000000E-01   0.00000000000000E+00   0.00000000000000E+00   1.39923479570236E-14
     -4.02456535082582E-18   1.39883233916728E-14   4.25340250394128E-15   0.00000000000000E+00   0.00000000000000E+00
      0.00000000000000E+00   0.00000000000000E+00  -1.65803469905568E-18  -1.73680828275665E-15  -1.73846631745571E-15
     -2.27465737966822E-15  -6.17717475994513E+00  -6.17717475994513E+00   0.00000000000000E+00   0.00000000000000E+00
     -2.29830245621798E-17  -1.22268740496549E-14  -1.22498570742170E-14  -1.97874512427305E-15
      1.33543495198903E-01
      8.00000000000000E-01   8.00000000000000E-01   0.00000000000000E+00   0.00000000000000E+00   1.40678534001353E-14
     -1.23672244933160E-17   1.40554861756420E-14   4.24691710451496E-15   0.00000000000000E+00   0.00000000000000E+00
      0.00000000000000E+00   0.00000000000000E+00  -1.65803156593521E-18  -1.73831039007690E-15  -1.73996842164283E-15
     -2.26157667611082E-15  -6.67717475994513E+00  -6.67717475994513E+00   0.00000000000000E+00   0.00000000000000E+00
     -2.29832488180623E-17  -1.22925345051811E-14  -1.23155177539992E-14  -1.98534042840412E-15
      1.43543495198903E-01
      8.00000000000000E-01   8.00000000000000E-01   0.00000000000000E+00   0.00000000000000E+00   1.41281559057087E-14
      1.61621634802741E-17   1.41443180691889E-14   4.24010186013810E-15   0.00000000000000E+00   0.00000000000000E+00
      0.00000000000000E+00   0.00000000000000E+00  -1.65802836606966E-18  -1.73615150175116E-15  -1.73780953011723E-15
     -2.24792267477995E-15  -7.17717475994513E+00  -7.17717475994513E+00   0.00000000000000E+00   0.00000000000000E+00
     -2.29834816329548E-17  -1.23835250574388E-14  -1.24065085390717E-14  -1.99217918535815E-15
      1.53543495198903E-01
      8.00000000000000E-01   8.00000000000000E-01   0.00000000000000E+00   0.00000000000000E+00   1.41780015066996E-14
     -5.22414110166752E-18   1.41727773655980E-14   4.23299481734038E-15   0.00000000000000E+00   0.00000000000000E+00
      0.00000000000000E+00   0.00000000000000E+00  -1.65802510217230E-18  -1.73178088137553E-15  -1.73343890647770E-15
     -2.23373556087476E-15  -7.67717475994513E+00  -7.67717475994513E+00   0.00000000000000E+00   0.00000000000000E+00
     -2.29837229620059E-17  -1.24163547361583E-14  -1.24393384591203E-14  -1.99925925646561E-15
      1.63543495198903E-01
      8.00000000000000E-01   8.00000000000000E-01   0.00000000000000E+00   0.00000000000000E+00   1.42199383731454E-14
      1.16756166719237E-18   1.42211059348125E-14   4.22562397041462E-15   0.00000000000000E+00   0.00000000000000E+00
      0.00000000000000E+00   0.00000000000000E+00  -1.65802178260075E-18  -1.72583829037780E-15  -1.72749631216040E-15
     -2.21904558814061E-15  -8.17717475994513E+00  -8.17717475994513E+00   0.00000000000000E+00   0.00000000000000E+00
     -2.29839727567934E-17  -1.24706256498954E-14  -1.24936096226522E-14  -2.00657838227401E-15
      1.73543495198903E-01
      8.00000000000000E-01   8.00000000000000E-01   0.00000000000000E+00   0.00000000000000E+00   1.42556092952475E-14
     -2.31693004877439E-18   1.42532923651987E-14   4.21801080087164E-15   0.00000000000000E+00   0.00000000000000E+00
      0.00000000000000E+00   0.00000000000000E+00  -1.65801841229196E-18  -1.71862606077810E-15  -1.72028407919039E-15
     -2.20387651378386E-15  -8.67717475994513E+00  -8.67717475994513E+00   0.00000000000000E+00   0.00000000000000E+00
     -2.29842309688467E-17  -1.25100240550395E-14  -1.25330082860083E-14  -2.01413428708778E-15
      1.83543495198903E-01
      8.00000000000000E-01   8.00000000000000E-01   0.00000000000000E+00   0.00000000000000E+00   1.42862147325178E-14
      3.05443758489591E-17   1.43167591083668E-14   4.21017242306433E-15   0.00000000000000E+00   0.00000000000000E+00
      0.00000000000000E+00   0.00000000000000E+00  -1.65801499490644E-18  -1.71027131240287E-15  -1.71192932739778E-15
     -2.18824768474447E-15  -9.17717475994513E+00  -9.17717475994513E+00   0.00000000000000E+00   0.00000000000000E+00
     -2.29844975516581E-17  -1.25818452834174E-14  -1.26048297809690E-14  -2.02192473831985E-15
      1.93543495198903E-01
      8.00000000000000E-01   8.00000000000000E-01   0.00000000000000E+00   0.00000000000000E+00   1.43126975940843E-14
      2.42666626012911E-17   1.43369642566855E-14   4.20212294035602E-15   0.00000000000000E+00   0.00000000000000E+00
      0.00000000000000E+00   0.00000000000000E+00  -1.65801153647393E-18  -1.70093513339210E-15  -1.70259314492857E-15
     -2.17217536230796E-15  -9.67717475994513E+00  -9.67717475994513E+00   0.00000000000000E+00   0.00000000000000E+00
     -2.29847724617496E-17  -1.26113863392952E-14  -1.26343711117570E-14  -2.02994757804804E-15
      2.03543495198903E-01
      8.00000000000000E-01   8.00000000000000E-01   0.00000000000000E+00   0.00000000000000E+00   1.43359002107735E-14
     -1.86226788717594E-17   1.43172775319018E-14   4.19387432792286E-15   0.00000000000000E+00   0.00000000000000E+00
      0.00000000000000E+00   0.00000000000000E+00  -1.65800803690652E-18  -1.69050597620269E-15  -1.69216398423960E-15
     -2.15567359110018E-15  -1.01771747599451E+01  -1.01771747599451E+01   0.00000000000000E+00   0.00000000000000E+00
     -2.29850556591449E-17  -1.26021284920030E-14  -1.26251135476622E-14  -2.03820073682269E-15
      2.13543495198903E-01
      8.00000000000000E-01   8.00000000000000E-01   0.00000000000000E+00   0.00000000000000E+00   1.43566417438713E-14
      1.12499099871334E-18   1.43577667348701E-14   4.18543703427255E-15   0.00000000000000E+00   0.00000000000000E+00
      0.00000000000000E+00   0.00000000000000E+00  -1.65800449930105E-18  -1.67856711604541E-15  -1.68022512054471E-15
     -2.13875479729142E-15  -1.06771747599451E+01  -1.06771747599451E+01   0.00000000000000E+00   0.00000000000000E+00
     -2.29853471074912E-17  -1.26545562672179E-14  -1.26775416143254E-14  -2.04668223698114E-15
      2.23543495198903E-01
      8.00000000000000E-01   8.00000000000000E-01   0.00000000000000E+00   0.00000000000000E+00   1.43756158284134E-14
      1.63411191833591E-18   1.43772499403317E-14   4.17682043019834E-15   0.00000000000000E+00   0.00000000000000E+00
      0.00000000000000E+00   0.00000000000000E+00  -1.65800092893505E-18  -1.66348420731940E-15  -1.66514220824834E-15
     -2.12143023915078E-15  -1.11771747599451E+01  -1.11771747599451E+01   0.00000000000000E+00   0.00000000000000E+00
     -2.29856467740017E-17  -1.26891220853094E-14  -1.27121077320834E-14  -2.05539019104755E-15
      2.33543495198903E-01
      8.00000000000000E-01   8.00000000000000E-01   0.00000000000000E+00   0.00000000000000E+00   1.43932469848636E-14
     -8.19090021690293E-18   1.43850560846467E-14   4.16803319420956E-15   0.00000000000000E+00   0.00000000000000E+00
      0.00000000000000E+00   0.00000000000000E+00  -1.65799732475449E-18  -1.63971369887538E-15  -1.64137169620014E-15
     -2.10371039493256E-15  -1.16771747599451E+01  -1.16771747599451E+01   0.00000000000000E+00   0.00000000000000E+00
     -2.29859546293799E-17  -1.27206984338172E-14  -1.27436843884466E-14  -2.06432279927698E-15
      2.43543495198903E-01
      8.00000000000000E-01   8.00000000000000E-01   0.00000000000000E+00   0.00000000000000E+00   1.44098033863791E-14
      7.99572318493672E-18   1.44177991095641E-14   4.15908369715653E-15   0.00000000000000E+00   0.00000000000000E+00
      0.00000000000000E+00   0.00000000000000E+00  -1.65799369236738E-18  -1.58899823905022E-15  -1.59065623274259E-15
     -2.08560534809288E-15  -1.21771747599451E+01  -1.21771747599451E+01   0.00000000000000E+00   0.00000000000000E+00
     -2.29862706478091E-17  -1.28041566061737E-14  -1.28271428768215E-14  -2.07347834906366E-15
      2.53543495198903E-01
      8.00000000000000E-01   8.00000000000000E-01   0.00000000000000E+00   0.00000000000000E+00   1.44254636901525E-14
     -2.19628565664745E-18   1.44232674044958E-14   4.14998043185435E-15   0.00000000000000E+00   0.00000000000000E+00
      0.00000000000000E+00   0.00000000000000E+00  -1.65799003093767E-18  -1.45177704939522E-15  -1.45343503942616E-15
     -2.06712521395053E-15  -1.26771747599451E+01  -1.26771747599451E+01   0.00000000000000E+00   0.00000000000000E+00
     -2.29865948070565E-17  -1.29468457702626E-14  -1.29698323650696E-14  -2.08285521790382E-15
      2.63543495198903E-01
      8.00000000000000E-01   8.00000000000000E-01   0.00000000000000E+00   0.00000000000000E+00   1.44403213962101E-14
     -8.39773572342432E-18   1.44319236604867E-14   4.14073252108394E-15   0.00000000000000E+00   0.00000000000000E+00
      0.00000000000000E+00   0.00000000000000E+00  -1.65798634662903E-18  -1.03839731529408E-15  -1.04005530164071E-15
     -2.04828064028884E-15  -1.31771747599451E+01  -1.31771747599451E+01   0.00000000000000E+00   0.00000000000000E+00
     -2.29869270887488E-17  -1.33688814317572E-14  -1.33918683588460E-14  -2.09245188079511E-15
      2.73543495198903E-01
      8.00000000000000E-01   8.00000000000000E-01   0.00000000000000E+00   0.00000000000000E+00   1.44543828915394E-14
      7.55201067657306E-18   1.44619349022159E-14   4.13135032289275E-15   0.00000000000000E+00   0.00000000000000E+00
      0.00000000000000E+00   0.00000000000000E+00  -1.65798263771643E-18   2.41371166538914E-16   2.39713183901197E-16
     -2.02908340074476E-15  -1.36771747599451E+01  -1.36771747599451E+01   0.00000000000000E+00   0.00000000000000E+00
     -2.29872674787928E-17  -1.46786608186383E-14  -1.47016480861171E-14  -2.10226692214800E-15
      2.83543495198903E-01
      8.00000000000000E-01   8.00000000000000E-01   0.00000000000000E+00   0.00000000000000E+00   1.44675613136732E-14
      2.89771187383269E-17   1.44965384324115E-14   4.12184612928238E-15   0.00000000000000E+00   0.00000000000000E+00
      0.00000000000000E+00   0.00000000000000E+00  -1.65797890642726E-18   4.17740129890092E-15   4.17574331999450E-15
     -2.00954707798479E-15  -1.41771747599451E+01  -1.41771747599451E+01   0.00000000000000E+00   0.00000000000000E+00
     -2.29876159679357E-17  -1.86492941364381E-14  -1.86722817524061E-14  -2.11229905129759E-15
      2.93543495198903E-01
      8.00000000000000E-01   8.00000000000000E-01   0.00000000000000E+00   0.00000000000000E+00   1.44796614961545E-14
     -6.71309472745156E-18   1.44729484014271E-14   4.11223492015163E-15   0.00000000000000E+00   0.00000000000000E+00
      0.00000000000000E+00   0.00000000000000E+00  -1.65797514769931E-18   1.60481011710925E-14   1.60464431959448E-14
     -1.98968780058091E-15  -1.46771747599451E+01  -1.46771747599451E+01   0.00000000000000E+00   0.00000000000000E+00
     -2.29879725523885E-17  -3.04964036248195E-14  -3.05193915973719E-14  -2.12254711957071E-15
      3.03543495198903E-01
      8.00000000000000E-01   8.00000000000000E-01   0.00000000000000E+00   0.00000000000000E+00   1.44903321513337E-14
     -2.54034406416059E-17   1.44649287106921E-14   4.10253509433723E-15   0.00000000000000E+00  -9.18447372075268E-17
      0.00000000000000E+00   0.00000000000000E+00  -1.65797133738145E-18   5.09673922796129E-14   5.09657343082756E-14
     -1.96952495817714E-15  -1.51771747599451E+01  -1.51771747599451E+01   0.00000000000000E+00   0.00000000000000E+00
     -2.29883372344106E-17  -6.54076746817332E-14  -6.54306630189676E-14  -2.13301013616008E-15
      3.13543495198903E-01
      8.00000000000000E-01   8.00000000000000E-01   0.00000000000000E+00   0.00000000000000E+00   1.44989355168884E-14
     -1.09559647129420E-17   1.44879795521755E-14   4.09276907371534E-15   0.00000000000000E+00  -1.83689474415054E-16
      0.00000000000000E+00   0.00000000000000E+00  -1.65796736277060E-18   1.50859705640867E-13   1.50858047673504E-13
     -1.94908179244432E-15  -1.56771747599451E+01  -1.56771747599451E+01   0.00000000000000E+00   0.00000000000000E+00
     -2.29887100228133E-17  -1.65323038515658E-13  -1.65346027225681E-13  -2.14368728127102E-15
      3.23543495198903E-01
      8.00000000000000E-01   8.00000000000000E-01   0.00000000000000E+00   0.00000000000000E+00   1.45042418100558E-14
      8.00979448423114E-18   1.45122516045400E-14   4.08296369905416E-15   0.00000000000000E+00  -4.59223686037634E-16
      0.00000000000000E+00   0.00000000000000E+00  -1.65796281188575E-18   4.28140448240626E-13   4.28138790277814E-13
     -1.92838577814091E-15  -1.61771747599451E+01  -1.61771747599451E+01   0.00000000000000E+00   0.00000000000000E+00
     -2.29890909335262E-17  -4.42628052791419E-13  -4.42651041882352E-13  -2.15457792091326E-15
      3.33543495198903E-01
      8.00000000000000E-01   8.00000000000000E-01   0.00000000000000E+00   0.00000000000000E+00   1.45037312661102E-14
     -1.08206131542204E-17   1.44929106529559E-14   4.07315044288854E-15   0.00000000000000E+00  -1.19398158369785E-15
      0.00000000000000E+00   0.00000000000000E+00  -1.65795632867878E-18   1.17350261228905E-12   1.17350095433272E-12
     -1.90746880034040E-15  -1.66771747599451E+01  -1.66771747599451E+01   0.00000000000000E+00   0.00000000000000E+00
     -2.29894799909257E-17  -1.18797087550568E-12  -1.18799386498567E-12  -2.16568164254814E-15
      3.43543495198903E-01
      8.00000000000000E-01   8.00000000000000E-01   0.00000000000000E+00   0.00000000000000E+00   1.44920389098512E-14
      5.73386419266046E-18   1.44977727740438E-14   4.06336566579654E-15   0.00000000000000E+00  -3.12272106505591E-15
      0.00000000000000E+00   0.00000000000000E+00  -1.65794388261448E-18   3.11003504509720E-12   3.11003338715331E-12
     -1.88636730528851E-15  -1.71771747599451E+01  -1.71771747599451E+01   0.00000000000000E+00   0.00000000000000E+00
     -2.29898772316420E-17  -3.12450817005012E-12  -3.12453115992735E-12  -2.17699836050803E-15
      3.53543495198903E-01
      8.00000000000000E-01   8.00000000000000E-01   0.00000000000000E+00   0.00000000000000E+00   1.44577573380850E-14
      9.59682572357729E-19   1.44587170206574E-14   4.05365140797643E-15   0.00000000000000E+00  -7.99049213705483E-15
      0.00000000000000E+00   0.00000000000000E+00  -1.65791455239187E-18   7.96291733967650E-12   7.96291568176194E-12
     -1.86512281527968E-15  -1.76771747599451E+01  -1.76771747599451E+01   0.00000000000000E+00   0.00000000000000E+00
     -2.29902827144987E-17  -7.97735140849994E-12  -7.97737439878265E-12  -2.18852859269675E-15
      3.63543495198903E-01
      8.00000000000000E-01   8.00000000000000E-01   0.00000000000000E+00   0.00000000000000E+00   1.43777207814032E-14
     -2.36121220250896E-17   1.43541086593781E-14   4.04405747937164E-15   0.00000000000000E+00  -1.96547737624107E-14
      0.00000000000000E+00   0.00000000000000E+00  -1.65784129728812E-18   1.96660874904433E-11   1.96660858326021E-11
     -1.84378338419312E-15  -1.81771747599451E+01  -1.81771747599451E+01   0.00000000000000E+00   0.00000000000000E+00
     -2.29906965432791E-17  -1.96804169505649E-11  -1.96804399412615E-11  -2.20027409517852E-15
      3.73543495198903E-01
      8.00000000000000E-01   8.00000000000000E-01   0.00000000000000E+00   0.00000000000000E+00   1.42092773180631E-14
      2.94969194116815E-17   1.42387742374748E-14   4.03464581506475E-15   0.00000000000000E+00  -4.67489712386311E-14
      0.00000000000000E+00   0.00000000000000E+00  -1.65766435616591E-18   4.67535463105914E-11   4.67535446529270E-11
     -1.82240665331537E-15  -1.86771747599451E+01  -1.86771747599451E+01   0.00000000000000E+00   0.00000000000000E+00
     -2.29911189134635E-17  -4.67677604360455E-11  -4.67677834271645E-11  -2.21223916174938E-15
      3.83543495198903E-01
      8.00000000000000E-01   8.00000000000000E-01   0.00000000000000E+00   0.00000000000000E+00   1.38870427571995E-14
     -1.03444090854012E-17   1.38766983481141E-14   4.02549804910183E-15   0.00000000000000E+00  -1.06723584635146E-13
      0.00000000000000E+00   0.00000000000000E+00  -1.65727311838954E-18   1.06723631849490E-10   1.06723630192217E-10
     -1.80106503074424E-15  -1.91771747599451E+01  -1.91771747599450E+01   0.00000000000000E+00   0.00000000000000E+00
     -2.29915501985615E-17  -1.06737483899015E-10  -1.06737506890565E-10  -2.22443301835760E-15
      3.93543495198903E-01
      8.00000000000000E-01   8.00000000000000E-01   0.00000000000000E+00   0.00000000000000E+00   1.33416048642209E-14
     -4.15389360806984E-18   1.33374509706128E-14   4.01672663658077E-15   0.00000000000000E+00  -2.33193787769910E-13
      0.00000000000000E+00   0.00000000000000E+00  -1.65651676558673E-18   2.33176144815471E-10   2.33176143158954E-10
     -1.77985290178412E-15  -1.96771747599451E+01  -1.96771747599449E+01   0.00000000000000E+00   0.00000000000000E+00
     -2.29919910917976E-17  -2.33189457617933E-10  -2.33189480609924E-10  -2.23687373479665E-15
      4.03543495198903E-01
      8.00000000000000E-01   8.00000000000000E-01   0.00000000000000E+00   0.00000000000000E+00   1.25520484530356E-14
      1.58820847982188E-17   1.25679305378338E-14   4.00848787660208E-15   0.00000000000000E+00  -4.85766815090609E-13
      0.00000000000000E+00   0.00000000000000E+00  -1.65528325592483E-18   4.85746185424750E-10   4.85746183769467E-10
     -1.75889424443356E-15  -2.01771747599451E+01  -2.01771747599447E+01   0.00000000000000E+00   0.00000000000000E+00
     -2.29924428031391E-17  -4.85758728707563E-10  -4.85758751700005E-10  -2.24959363216852E-15
      4.13543495198903E-01
      8.00000000000000E-01   8.00000000000000E-01   0.00000000000000E+00   0.00000000000000E+00   1.15894098479555E-14
      9.62995876564561E-18   1.15990398067211E-14   4.00099130257445E-15   0.00000000000000E+00  -9.60604106453522E-13
      0.00000000000000E+00   0.00000000000000E+00  -1.65360137476852E-18   9.60579628054191E-10   9.60579626400590E-10
     -1.73834640241692E-15  -2.06771747599451E+01  -2.06771747599442E+01   0.00000000000000E+00   0.00000000000000E+00
     -2.29929072664910E-17  -9.60591202447490E-10  -9.60591225440398E-10  -2.26264490015752E-15
      4.23543495198903E-01
      8.00000000000000E-01   8.00000000000000E-01   0.00000000000000E+00   0.00000000000000E+00   1.05797406598016E-14
      1.51099183945450E-17   1.05948505781961E-14   3.99449565765329E-15   0.00000000000000E+00  -1.79556461240715E-12
      0.00000000000000E+00   0.00000000000000E+00  -1.65162685989920E-18   1.79554042934812E-09   1.79554042769650E-09
     -1.71839344663865E-15  -2.11771747599451E+01  -2.11771747599433E+01   0.00000000000000E+00   0.00000000000000E+00
     -2.29933872418019E-17  -1.79555099955367E-09  -1.79555102254706E-09  -2.27610221101464E-15
      4.33543495198903E-01
      8.00000000000000E-01   8.00000000000000E-01   0.00000000000000E+00   0.00000000000000E+00   9.62423940865477E-15
     -2.06710172013052E-17   9.60356839145346E-15   3.98928260563513E-15   0.00000000000000E+00  -3.16258168100398E-12
      0.00000000000000E+00   0.00000000000000E+00  -1.64951771646586E-18   3.16254216902461E-09   3.16254216737509E-09
     -1.69922438917054E-15  -2.16771747599451E+01  -2.16771747599420E+01   0.00000000000000E+00   0.00000000000000E+00
     -2.29938861625494E-17  -3.16255174794958E-09  -3.16255177094347E-09  -2.29005821646460E-15
      4.43543495198903E-01
      8.00000000000000E-01   8.00000000000000E-01   0.00000000000000E+00   0.00000000000000E+00   8.77274068023851E-15
     -3.37038331709257E-18   8.76937029692142E-15   3.98561094019230E-15   0.00000000000000E+00  -5.24424264981257E-12
      0.00000000000000E+00   0.00000000000000E+00  -1.64736362281221E-18   5.24423005429524E-09   5.24423005264788E-09
     -1.68100037032706E-15  -2.21771747599451E+01  -2.21771747599399E+01   0.00000000000000E+00   0.00000000000000E+00
     -2.29944076759300E-17  -5.24423879902380E-09  -5.24423882201821E-09  -2.30461056986525E-15
      4.53543495198903E-01
      8.00000000000000E-01   8.00000000000000E-01   0.00000000000000E+00   0.00000000000000E+00   8.03996718290809E-15
     -5.31265277360435E-18   8.03465453013448E-15   3.98367028801419E-15   0.00000000000000E+00  -8.20311270369025E-12
      0.00000000000000E+00   0.00000000000000E+00  -1.64519796446357E-18   8.20307909891260E-09   8.20307909726740E-09
     -1.66382523839556E-15  -2.26771747599451E+01  -2.26771747599369E+01   0.00000000000000E+00   0.00000000000000E+00
     -2.29949550364582E-17  -8.20308710892678E-09  -8.20308713192173E-09  -2.31984504961864E-15
      4.63543495198903E-01
      8.00000000000000E-01   8.00000000000000E-01   0.00000000000000E+00   0.00000000000000E+00   7.41825506661798E-15
     -2.48399900300657E-17   7.39341507658791E-15   3.98355663167369E-15   0.00000000000000E+00  -1.21574878641603E-11