DF-ISE text

Info {
  version   = 1.0
  type      = xyplot
  datasets  = [
    "time"
    "Ntop OuterVoltage" "Ntop InnerVoltage" "Ntop QuasiFermiPotential" "Ntop DisplacementCurrent" "Ntop eCurrent"
    "Ntop hCurrent" "Ntop TotalCurrent" "Ntop Charge" "Ptop OuterVoltage" "Ptop InnerVoltage"
    "Ptop QuasiFermiPotential" "Ptop DisplacementCurrent" "Ptop eCurrent" "Ptop hCurrent" "Ptop TotalCurrent"
    "Ptop Charge" "Pbot OuterVoltage" "Pbot InnerVoltage" "Pbot QuasiFermiPotential" "Pbot DisplacementCurrent"
    "Pbot eCurrent" "Pbot hCurrent" "Pbot TotalCurrent" "Pbot Charge" ]
  functions = [
    Time
    OuterVoltage InnerVoltage QuasiFermiPotential DisplacementCurrent eCurrent
    hCurrent TotalCurrent Charge OuterVoltage InnerVoltage
    QuasiFermiPotential DisplacementCurrent eCurrent hCurrent TotalCurrent
    Charge OuterVoltage InnerVoltage QuasiFermiPotential DisplacementCurrent
    eCurrent hCurrent TotalCurrent Charge ]
}

Data {
      1.00000000000000E-03
      8.00000000000000E-01   8.00000000000000E-01   0.00000000000000E+00   0.00000000000000E+00   1.62365622694032E-14
     -1.32296146419665E-19   1.62364299732568E-14   9.80291432051369E-15   0.00000000000000E+00   0.00000000000000E+00
      0.00000000000000E+00   0.00000000000000E+00  -8.92584521700184E-19  -1.15153399099785E-14  -1.15162324945002E-14
     -7.88814727973616E-15  -5.00000000000000E-02  -5.00000000000000E-02   0.00000000000000E+00   0.00000000000000E+00
     -2.29808638242328E-17  -4.69721661493244E-15  -4.72019747875667E-15  -1.91476704077753E-15
      2.91111111111111E-03
      8.00000000000000E-01   8.00000000000000E-01   0.00000000000000E+00   0.00000000000000E+00   1.65526228089372E-14
     -1.22660684965378E-19   1.65525001482523E-14   9.80380101061314E-15   0.00000000000000E+00   0.00000000000000E+00
      0.00000000000000E+00   0.00000000000000E+00  -8.92584521258824E-19  -1.15140906408343E-14  -1.15149832253556E-14
     -7.88814562683011E-15  -1.45555555555556E-01  -1.45555555555555E-01   0.00000000000000E+00   0.00000000000000E+00
     -2.29808936216403E-17  -5.01453602927497E-15  -5.03751692289661E-15  -1.91565538378303E-15
      6.56345679012346E-03
      8.00000000000000E-01   8.00000000000000E-01   0.00000000000000E+00   0.00000000000000E+00   1.71172343985602E-14
     -4.53094464885350E-19   1.71167813040953E-14   9.80549157636944E-15   0.00000000000000E+00   0.00000000000000E+00
      0.00000000000000E+00   0.00000000000000E+00  -8.92584519746204E-19  -1.15119006570922E-14  -1.15127932416119E-14
     -7.88814050527084E-15  -3.28172839506173E-01  -3.28172839506173E-01   0.00000000000000E+00   0.00000000000000E+00
     -2.29809505198539E-17  -5.58100711196356E-15  -5.60398806248341E-15  -1.91735107109859E-15
      1.35434951989026E-02
      8.00000000000000E-01   8.00000000000000E-01   0.00000000000000E+00   0.00000000000000E+00   1.80885594836892E-14
     -9.50487295923859E-19   1.80876089963933E-14   9.80870187570108E-15   0.00000000000000E+00   0.00000000000000E+00
      0.00000000000000E+00   0.00000000000000E+00  -8.92584511834490E-19  -1.15084082665689E-14  -1.15093008510808E-14
     -7.88811703264971E-15  -6.77174759945130E-01  -6.77174759945130E-01   0.00000000000000E+00   0.00000000000000E+00
     -2.29810590976354E-17  -6.55532708621489E-15  -6.57830814531252E-15  -1.92058484305144E-15
      2.35434951989026E-02
      8.00000000000000E-01   8.00000000000000E-01   0.00000000000000E+00   0.00000000000000E+00   1.93039301088230E-14
      6.57945804797957E-19   1.93045880546278E-14   9.81320727895805E-15   0.00000000000000E+00   0.00000000000000E+00
      0.00000000000000E+00   0.00000000000000E+00  -8.92584472471074E-19  -1.15048191143314E-14  -1.15057116988038E-14
     -7.88800026277579E-15  -1.17717475994513E+00  -1.17717475994513E+00   0.00000000000000E+00   0.00000000000000E+00
     -2.29812144408279E-17  -7.77589514138316E-15  -7.79887635582399E-15  -1.92520701618228E-15
      3.35434951989026E-02
      8.00000000000000E-01   8.00000000000000E-01   0.00000000000000E+00   0.00000000000000E+00   2.03545322099628E-14
     -3.00984662950340E-18   2.03515223633333E-14   9.81743059715190E-15   0.00000000000000E+00   0.00000000000000E+00
      0.00000000000000E+00   0.00000000000000E+00  -8.92584338390348E-19  -1.15029974480994E-14  -1.15038900324378E-14
     -7.88759854264351E-15  -1.67717475994513E+00  -1.67717475994513E+00   0.00000000000000E+00   0.00000000000000E+00
     -2.29813700444423E-17  -8.82465096085097E-15  -8.84763233089542E-15  -1.92983205450841E-15
      4.35434951989026E-02
      8.00000000000000E-01   8.00000000000000E-01   0.00000000000000E+00   0.00000000000000E+00   2.12281135439547E-14
     -2.04965242169849E-18   2.12260638915330E-14   9.82099518838851E-15   0.00000000000000E+00   0.00000000000000E+00
      0.00000000000000E+00   0.00000000000000E+00  -8.92583966670787E-19  -1.15036059224468E-14  -1.15044985064135E-14
     -7.88648647805351E-15  -2.17717475994513E+00  -2.17717475994513E+00   0.00000000000000E+00   0.00000000000000E+00
     -2.29815275437935E-17  -9.69858385757576E-15  -9.72156538511955E-15  -1.93450871033500E-15
      5.35434951989026E-02
      8.00000000000000E-01   8.00000000000000E-01   0.00000000000000E+00   0.00000000000000E+00   2.18916002430541E-14
      1.24638415390318E-18   2.18928466272080E-14   9.82330216970435E-15   0.00000000000000E+00   0.00000000000000E+00
      0.00000000000000E+00   0.00000000000000E+00  -8.92583139092449E-19  -1.15079663032486E-14  -1.15088588863877E-14
     -7.88399785691266E-15  -2.67717475994513E+00  -2.67717475994513E+00   0.00000000000000E+00   0.00000000000000E+00
     -2.29816892094266E-17  -1.03610060516109E-14  -1.03839877408203E-14  -1.93930431279171E-15
      6.35434951989026E-02
      8.00000000000000E-01   8.00000000000000E-01   0.00000000000000E+00   0.00000000000000E+00   2.24350852243063E-14
     -2.77668939821780E-18   2.24323085349081E-14   9.82367163782165E-15   0.00000000000000E+00   0.00000000000000E+00
      0.00000000000000E+00   0.00000000000000E+00  -8.92581635100242E-19  -1.15180728185284E-14  -1.15189654001635E-14
     -7.87941086877409E-15  -3.17717475994513E+00  -3.17717475994513E+00   0.00000000000000E+00   0.00000000000000E+00
     -2.29818564636962E-17  -1.08903612782810E-14  -1.09133431347447E-14  -1.94426076904756E-15
      7.35434951989026E-02
      8.00000000000000E-01   8.00000000000000E-01   0.00000000000000E+00   0.00000000000000E+00   2.28790889357505E-14
      7.39045440642458E-19   2.28798279811912E-14   9.82183603202509E-15   0.00000000000000E+00   0.00000000000000E+00
      0.00000000000000E+00   0.00000000000000E+00  -8.92579403202720E-19  -1.15363351516755E-14  -1.15372277310787E-14
     -7.87242757492933E-15  -3.67717475994513E+00  -3.67717475994513E+00   0.00000000000000E+00   0.00000000000000E+00
     -2.29820303457242E-17  -1.13196182197667E-14  -1.13426002501124E-14  -1.94940845709576E-15
      8.35434951989026E-02
      8.00000000000000E-01   8.00000000000000E-01   0.00000000000000E+00   0.00000000000000E+00   2.32269623988667E-14
     -4.44956036992014E-18   2.32225128384968E-14   9.81813931197359E-15   0.00000000000000E+00   0.00000000000000E+00
      0.00000000000000E+00   0.00000000000000E+00  -8.92576605269275E-19  -1.15641218179354E-14  -1.15650143945407E-14
     -7.86336716566830E-15  -4.17717475994513E+00  -4.17717475994513E+00   0.00000000000000E+00   0.00000000000000E+00
     -2.29822117097595E-17  -1.16345162322464E-14  -1.16574984439562E-14  -1.95477214630528E-15
      9.35434951989026E-02
      8.00000000000000E-01   8.00000000000000E-01   0.00000000000000E+00   0.00000000000000E+00   2.34934444257397E-14
      7.98431328896905E-18   2.35014287390287E-14   9.81312124269517E-15   0.00000000000000E+00   0.00000000000000E+00
      0.00000000000000E+00   0.00000000000000E+00  -8.92573445422408E-19  -1.15978506047113E-14  -1.15987431781568E-14
     -7.85275273205997E-15  -4.67717475994513E+00  -4.67717475994513E+00   0.00000000000000E+00   0.00000000000000E+00
     -2.29824011401159E-17  -1.18797031597317E-14  -1.19026855608719E-14  -1.96036851063529E-15
      1.03543495198903E-01
      8.00000000000000E-01   8.00000000000000E-01   0.00000000000000E+00   0.00000000000000E+00   2.36893344903335E-14
     -2.79590751532436E-18   2.36865385828182E-14   9.80717427390077E-15   0.00000000000000E+00   0.00000000000000E+00
      0.00000000000000E+00   0.00000000000000E+00  -8.92570053891616E-19  -1.16268772055494E-14  -1.16277697756033E-14
     -7.84096851834888E-15  -5.17717475994513E+00  -5.17717475994513E+00   0.00000000000000E+00   0.00000000000000E+00
     -2.29825989372268E-17  -1.20357862082777E-14  -1.20587688072149E-14  -1.96620575555187E-15
      1.13543495198903E-01
      8.00000000000000E-01   8.00000000000000E-01   0.00000000000000E+00   0.00000000000000E+00   2.38265840078716E-14
     -2.15426883816638E-18   2.38244297390334E-14   9.80052438650998E-15   0.00000000000000E+00   0.00000000000000E+00
      0.00000000000000E+00   0.00000000000000E+00  -8.92566501238556E-19  -1.16438516791751E-14  -1.16447442456763E-14
     -7.82823781394232E-15  -5.67717475994513E+00  -5.67717475994513E+00   0.00000000000000E+00   0.00000000000000E+00
     -2.29828052164767E-17  -1.21567026881406E-14  -1.21796854933571E-14  -1.97228657256765E-15
      1.23543495198903E-01
      8.00000000000000E-01   8.00000000000000E-01   0.00000000000000E+00   0.00000000000000E+00   2.39243801920216E-14
     -1.93242658625621E-18   2.39224477654353E-14   9.79329799672175E-15   0.00000000000000E+00   0.00000000000000E+00
      0.00000000000000E+00   0.00000000000000E+00  -8.92562823507938E-19  -1.16507611739561E-14  -1.16516537367796E-14
     -7.81468719208411E-15  -6.17717475994513E+00  -6.17717475994513E+00   0.00000000000000E+00   0.00000000000000E+00
     -2.29830199977781E-17  -1.22478110086579E-14  -1.22707940286557E-14  -1.97861080463764E-15
      1.33543495198903E-01
      8.00000000000000E-01   8.00000000000000E-01   0.00000000000000E+00   0.00000000000000E+00   2.39986232762452E-14
     -4.53373819675257E-18   2.39940895380484E-14   9.78556837285582E-15   0.00000000000000E+00   0.00000000000000E+00
      0.00000000000000E+00   0.00000000000000E+00  -8.92559042617488E-19  -1.16517386701287E-14  -1.16526312291713E-14
     -7.80039147018929E-15  -6.67717475994513E+00  -6.67717475994513E+00   0.00000000000000E+00   0.00000000000000E+00
     -2.29832432545761E-17  -1.23184750656227E-14  -1.23414583088772E-14  -1.98517690266650E-15
      1.43543495198903E-01
      8.00000000000000E-01   8.00000000000000E-01   0.00000000000000E+00   0.00000000000000E+00   2.40583479487311E-14
     -3.80881073264222E-18   2.40545391379985E-14   9.77737906230283E-15   0.00000000000000E+00   0.00000000000000E+00
      0.00000000000000E+00   0.00000000000000E+00  -8.92555170197731E-19  -1.16493562198367E-14  -1.16502487750069E-14
     -7.78539643745700E-15  -7.17717475994513E+00  -7.17717475994513E+00   0.00000000000000E+00   0.00000000000000E+00
     -2.29834749373862E-17  -1.23813068880541E-14  -1.24042903629915E-14  -1.99198262484583E-15
      1.53543495198903E-01
      8.00000000000000E-01   8.00000000000000E-01   0.00000000000000E+00   0.00000000000000E+00   2.41081428224358E-14
      3.81361884062354E-18   2.41119564412765E-14   9.76875498942882E-15   0.00000000000000E+00   0.00000000000000E+00
      0.00000000000000E+00   0.00000000000000E+00  -8.92551216328635E-19  -1.16448416730534E-14  -1.16457342242698E-14
     -7.76972962050304E-15  -7.67717475994513E+00  -7.67717475994513E+00   0.00000000000000E+00   0.00000000000000E+00
     -2.29837149849584E-17  -1.24432385020218E-14  -1.24662222170067E-14  -1.99902536892581E-15
      1.63543495198903E-01
      8.00000000000000E-01   8.00000000000000E-01   0.00000000000000E+00   0.00000000000000E+00   2.41504794308964E-14
     -2.06271482007007E-17   2.41298522826958E-14   9.75970747118871E-15   0.00000000000000E+00   0.00000000000000E+00
      0.00000000000000E+00   0.00000000000000E+00  -8.92547186270006E-19  -1.16387788792452E-14  -1.16396714264315E-14
     -7.75340514345736E-15  -8.17717475994513E+00  -8.17717475994513E+00   0.00000000000000E+00   0.00000000000000E+00
     -2.29839633294903E-17  -1.24671968929346E-14  -1.24901808562641E-14  -2.00630232773136E-15
      1.73543495198903E-01
      8.00000000000000E-01   8.00000000000000E-01   0.00000000000000E+00   0.00000000000000E+00   2.41869219330989E-14
      1.95177877849839E-19   2.41871171109767E-14   9.75023583287602E-15   0.00000000000000E+00   0.00000000000000E+00
      0.00000000000000E+00   0.00000000000000E+00  -8.92543085303977E-19  -1.16314867029114E-14  -1.16323792459967E-14
     -7.73642528696297E-15  -8.67717475994513E+00  -8.67717475994513E+00   0.00000000000000E+00   0.00000000000000E+00
     -2.29842198984951E-17  -1.25317536450815E-14  -1.25547378649800E-14  -2.01381054591308E-15
      1.83543495198903E-01
      8.00000000000000E-01   8.00000000000000E-01   0.00000000000000E+00   0.00000000000000E+00   2.42185750066958E-14
     -2.83924182954763E-18   2.42157357648662E-14   9.74032651616104E-15   0.00000000000000E+00   0.00000000000000E+00
      0.00000000000000E+00   0.00000000000000E+00  -8.92538916038589E-19  -1.16230748485331E-14  -1.16239673874492E-14
     -7.71877961228115E-15  -9.17717475994513E+00  -9.17717475994513E+00   0.00000000000000E+00   0.00000000000000E+00
     -2.29844846141880E-17  -1.25687838928029E-14  -1.25917683774171E-14  -2.02154690387986E-15
      1.93543495198903E-01
      8.00000000000000E-01   8.00000000000000E-01   0.00000000000000E+00   0.00000000000000E+00   2.42464041253705E-14
     -4.71694621289035E-18   2.42416871791576E-14   9.72994976887126E-15   0.00000000000000E+00   0.00000000000000E+00
      0.00000000000000E+00   0.00000000000000E+00  -8.92534679623872E-19  -1.16135921324422E-14  -1.16144846671218E-14
     -7.70044173487397E-15  -9.67717475994513E+00  -9.67717475994513E+00   0.00000000000000E+00   0.00000000000000E+00
     -2.29847573905512E-17  -1.26042177546453E-14  -1.26272025120359E-14  -2.02950803399729E-15
      2.03543495198903E-01
      8.00000000000000E-01   8.00000000000000E-01   0.00000000000000E+00   0.00000000000000E+00   2.42714340556384E-14
     -1.32271522463666E-17   2.42582069033921E-14   9.71905401507593E-15   0.00000000000000E+00   0.00000000000000E+00
      0.00000000000000E+00   0.00000000000000E+00  -8.92530375639867E-19  -1.16028528530872E-14  -1.16037453834628E-14
     -7.68136383772902E-15  -1.01771747599451E+01  -1.01771747599451E+01   0.00000000000000E+00   0.00000000000000E+00
     -2.29850381283205E-17  -1.26314764818009E-14  -1.26544615199292E-14  -2.03769017734690E-15
      2.13543495198903E-01
      8.00000000000000E-01   8.00000000000000E-01   0.00000000000000E+00   0.00000000000000E+00   2.42946448082139E-14
     -1.26536696321066E-17   2.42819911385818E-14   9.70756007179425E-15   0.00000000000000E+00   0.00000000000000E+00
      0.00000000000000E+00   0.00000000000000E+00  -8.92526002902410E-19  -1.15900565366626E-14  -1.15909490626655E-14
     -7.66147102393681E-15  -1.06771747599451E+01  -1.06771747599451E+01   0.00000000000000E+00   0.00000000000000E+00
     -2.29853267101881E-17  -1.26680567492060E-14  -1.26910420759162E-14  -2.04608904785745E-15
      2.23543495198903E-01
      8.00000000000000E-01   8.00000000000000E-01   0.00000000000000E+00   0.00000000000000E+00   2.43167375592994E-14
     -4.02536629577360E-18   2.43127121930036E-14   9.69536583883181E-15   0.00000000000000E+00   0.00000000000000E+00
      0.00000000000000E+00   0.00000000000000E+00  -8.92521556656833E-19  -1.15719391514794E-14  -1.15728316730360E-14
     -7.64066584474768E-15  -1.11771747599451E+01  -1.11771747599451E+01   0.00000000000000E+00   0.00000000000000E+00
     -2.29856230062043E-17  -1.27168948969614E-14  -1.27398805199676E-14  -2.05469999408418E-15
      2.33543495198903E-01
      8.00000000000000E-01   8.00000000000000E-01   0.00000000000000E+00   0.00000000000000E+00   2.43381821206289E-14
      7.61954992607433E-18   2.43458016705550E-14   9.68239043753141E-15   0.00000000000000E+00   0.00000000000000E+00
      0.00000000000000E+00   0.00000000000000E+00  -8.92517037271129E-19  -1.15365284702893E-14  -1.15374209873265E-14
     -7.61887122813387E-15  -1.16771747599451E+01  -1.16771747599451E+01   0.00000000000000E+00   0.00000000000000E+00
     -2.29859269153758E-17  -1.27853947563130E-14  -1.28083806832284E-14  -2.06351920939752E-15
      2.43543495198903E-01
      8.00000000000000E-01   8.00000000000000E-01   0.00000000000000E+00   0.00000000000000E+00   2.43590904565950E-14
     -1.67543626596750E-17   2.43423360939353E-14   9.66867762330119E-15   0.00000000000000E+00   0.00000000000000E+00
      0.00000000000000E+00   0.00000000000000E+00  -8.92512452971456E-19  -1.14414077917157E-14  -1.14423003041686E-14
     -7.59613119282321E-15  -1.21771747599451E+01  -1.21771747599451E+01   0.00000000000000E+00   0.00000000000000E+00
     -2.29862384590430E-17  -1.28770495513076E-14  -1.29000357897666E-14  -2.07254643047803E-15
      2.53543495198903E-01
      8.00000000000000E-01   8.00000000000000E-01   0.00000000000000E+00   0.00000000000000E+00   2.43790964786217E-14
      7.43380217619096E-18   2.43865302807979E-14   9.65445694048064E-15   0.00000000000000E+00   0.00000000000000E+00
      0.00000000000000E+00   0.00000000000000E+00  -8.92507825142798E-19  -1.11399523837182E-14  -1.11408448915434E-14
     -7.57267056365229E-15  -1.26771747599451E+01  -1.26771747599451E+01   0.00000000000000E+00   0.00000000000000E+00
     -2.29865578315791E-17  -1.32226988314229E-14  -1.32456853892545E-14  -2.08178637682837E-15
      2.63543495198903E-01
      8.00000000000000E-01   8.00000000000000E-01   0.00000000000000E+00   0.00000000000000E+00   2.43975772017419E-14
     -2.56746436979406E-17   2.43719025580440E-14   9.64002755999894E-15   0.00000000000000E+00   0.00000000000000E+00
      0.00000000000000E+00   0.00000000000000E+00  -8.92503176702843E-19  -1.01432786668568E-14  -1.01441711700335E-14
     -7.54878201929593E-15  -1.31771747599451E+01  -1.31771747599451E+01   0.00000000000000E+00   0.00000000000000E+00
     -2.29868852905370E-17  -1.42047445027199E-14  -1.42277313880104E-14  -2.09124554070302E-15
      2.73543495198903E-01
      8.00000000000000E-01   8.00000000000000E-01   0.00000000000000E+00   0.00000000000000E+00   2.44139261472154E-14
      4.28063368986411E-18   2.44182067809053E-14   9.62560915271980E-15   0.00000000000000E+00   0.00000000000000E+00
      0.00000000000000E+00   0.00000000000000E+00  -8.92498522815090E-19  -6.88107163853339E-15  -6.88196413705621E-15
     -7.52468087164612E-15  -1.36771747599451E+01  -1.36771747599451E+01   0.00000000000000E+00   0.00000000000000E+00
     -2.29872210216500E-17  -1.75132554228275E-14  -1.75362426438491E-14  -2.10092828107369E-15
      2.83543495198903E-01
      8.00000000000000E-01   8.00000000000000E-01   0.00000000000000E+00   0.00000000000000E+00   2.44275664837648E-14
      7.48142400410457E-19   2.44283146261652E-14   9.61131874805890E-15   0.00000000000000E+00   0.00000000000000E+00
      0.00000000000000E+00   0.00000000000000E+00  -8.92493826980468E-19   3.50504673137352E-15   3.50415423754654E-15
     -7.50048247709443E-15  -1.41771747599451E+01  -1.41771747599451E+01   0.00000000000000E+00   0.00000000000000E+00
     -2.29875651190970E-17  -2.79094812985926E-14  -2.79324688637117E-14  -2.11083627096449E-15
      2.93543495198903E-01
      8.00000000000000E-01   8.00000000000000E-01   0.00000000000000E+00   0.00000000000000E+00   2.44378516138669E-14
     -1.23146890675354E-17   2.44255369247994E-14   9.59721108249492E-15   0.00000000000000E+00   0.00000000000000E+00
      0.00000000000000E+00   0.00000000000000E+00  -8.92489138985946E-19   3.54805790749980E-14   3.54796865858590E-14
     -7.47624151760000E-15  -1.46771747599451E+01  -1.46771747599451E+01   0.00000000000000E+00   0.00000000000000E+00
     -2.29879176219489E-17  -5.98822355930363E-14  -5.99052235106582E-14  -2.12096956489494E-15
      3.03543495198903E-01
      8.00000000000000E-01   8.00000000000000E-01   0.00000000000000E+00   0.00000000000000E+00   2.44439823552940E-14
      2.34394719496601E-17   2.44674218272436E-14   9.58331233968763E-15   0.00000000000000E+00  -9.18447372075268E-17
      0.00000000000000E+00   0.00000000000000E+00  -8.92483949196183E-19   1.30457973960555E-13   1.30457081476606E-13
     -7.45198486644231E-15  -1.51771747599451E+01  -1.51771747599451E+01   0.00000000000000E+00   0.00000000000000E+00
     -2.29882785442107E-17  -1.54901515025305E-13  -1.54924503303849E-13  -2.13132747324535E-15
      3.13543495198903E-01
      8.00000000000000E-01   8.00000000000000E-01   0.00000000000000E+00   0.00000000000000E+00   2.44447959532515E-14
     -3.70156567556126E-17   2.44077802964959E-14   9.56963758646742E-15   0.00000000000000E+00  -3.67378948830107E-16
      0.00000000000000E+00   0.00000000000000E+00  -8.92478732607078E-19   4.02309962607506E-13   4.02309070128773E-13
     -7.42772856473425E-15  -1.56771747599451E+01  -1.56771747599451E+01   0.00000000000000E+00   0.00000000000000E+00
     -2.29886478906587E-17  -4.26693861777378E-13  -4.26716850425269E-13  -2.14190902173320E-15
      3.23543495198903E-01
      8.00000000000000E-01   8.00000000000000E-01   0.00000000000000E+00   0.00000000000000E+00   2.44380152297149E-14
      2.87923701911950E-17   2.44668075999061E-14   9.55619899345667E-15   0.00000000000000E+00  -1.19398158369785E-15
      0.00000000000000E+00   0.00000000000000E+00  -8.92470809086567E-19   1.15140903676629E-12   1.15140814429548E-12
     -7.40348578662992E-15  -1.61771747599451E+01  -1.61771747599451E+01   0.00000000000000E+00   0.00000000000000E+00
     -2.29890256657139E-17  -1.17585196286972E-12  -1.17587495189539E-12  -2.15271320682674E-15
      3.33543495198903E-01
      8.00000000000000E-01   8.00000000000000E-01   0.00000000000000E+00   0.00000000000000E+00   2.44183858936423E-14
     -3.22892740678550E-17   2.43860966195744E-14   9.54301031704511E-15   0.00000000000000E+00  -3.12272106505591E-15
      0.00000000000000E+00   0.00000000000000E+00  -8.92455194547331E-19   3.13662905610080E-12   3.13662816364561E-12
     -7.37927108286467E-15  -1.66771747599451E+01  -1.66771747599451E+01   0.00000000000000E+00   0.00000000000000E+00
     -2.29894118818145E-17  -3.16099127085330E-12  -3.16101426026518E-12  -2.16373923418043E-15
      3.43543495198903E-01
      8.00000000000000E-01   8.00000000000000E-01   0.00000000000000E+00   0.00000000000000E+00   2.43739538625211E-14
      2.71243323324915E-17   2.44010781948536E-14   9.53009048469391E-15   0.00000000000000E+00  -8.17418161146988E-15
      0.00000000000000E+00   0.00000000000000E+00  -8.92417456850245E-19   8.19048437537451E-12   8.19048348295705E-12
     -7.35510357833588E-15  -1.71771747599451E+01  -1.71771747599451E+01   0.00000000000000E+00   0.00000000000000E+00
     -2.29898065732104E-17  -8.21486157134536E-12  -8.21488456115193E-12  -2.17498690635809E-15
      3.53543495198903E-01
      8.00000000000000E-01   8.00000000000000E-01   0.00000000000000E+00   0.00000000000000E+00   2.42795870213530E-14
     -2.62728427844395E-17   2.42533141785686E-14   9.51746791073316E-15   0.00000000000000E+00  -2.05732211344860E-14
      0.00000000000000E+00   0.00000000000000E+00  -8.92321464650682E-19   2.05303584454236E-11   2.05303575531021E-11
     -7.33101053030519E-15  -1.76771747599451E+01  -1.76771747599451E+01   0.00000000000000E+00   0.00000000000000E+00
     -2.29902098229920E-17  -2.05545878770708E-11  -2.05546108672807E-11  -2.18645738042793E-15
      3.63543495198903E-01
      8.00000000000000E-01   8.00000000000000E-01   0.00000000000000E+00   0.00000000000000E+00   2.40882564480571E-14
     -1.15519458376457E-17   2.40767045022195E-14   9.50518681949727E-15   0.00000000000000E+00  -4.93206238804419E-14
      0.00000000000000E+00   0.00000000000000E+00  -8.92086877534333E-19   4.93679225674954E-11   4.93679216754085E-11
     -7.30703218449070E-15  -1.81771747599451E+01  -1.81771747599451E+01   0.00000000000000E+00   0.00000000000000E+00
     -2.29906218156808E-17  -4.93919753892888E-11  -4.93919983799106E-11  -2.19815463500658E-15
      3.73543495198903E-01
      8.00000000000000E-01   8.00000000000000E-01   0.00000000000000E+00   0.00000000000000E+00   2.37273413888953E-14
      2.77087927501028E-17   2.37550501816454E-14   9.49331669396116E-15   0.00000000000000E+00  -1.13703784662918E-13
      0.00000000000000E+00   0.00000000000000E+00  -8.91564958467364E-19   1.13680453485503E-10   1.13680452593938E-10
     -7.28322857623995E-15  -1.86771747599451E+01  -1.86771747599450E+01   0.00000000000000E+00   0.00000000000000E+00
     -2.29910429324409E-17  -1.13704184653078E-10  -1.13704207644121E-10  -2.21008811772122E-15
      3.83543495198903E-01
      8.00000000000000E-01   8.00000000000000E-01   0.00000000000000E+00   0.00000000000000E+00   2.31198282757469E-14
     -2.32235347001648E-17   2.30966047410467E-14   9.48196523718114E-15   0.00000000000000E+00  -2.50001374678888E-13
      0.00000000000000E+00   0.00000000000000E+00  -8.90555346196125E-19   2.50001995999719E-10   2.50001995109164E-10
     -7.25968820949578E-15  -1.91771747599451E+01  -1.91771747599449E+01   0.00000000000000E+00   0.00000000000000E+00
     -2.29914739057750E-17  -2.50025068722432E-10  -2.50025091713906E-10  -2.22227702768532E-15
      3.93543495198903E-01
      8.00000000000000E-01   8.00000000000000E-01   0.00000000000000E+00   0.00000000000000E+00   2.22436542610965E-14
      4.14639229370799E-18   2.22478006533902E-14   9.47129289795489E-15   0.00000000000000E+00  -5.23147623134072E-13
      0.00000000000000E+00   0.00000000000000E+00  -8.88916425050613E-19   5.23184841975068E-10   5.23184841086151E-10
     -7.23653672618548E-15  -1.96771747599451E+01  -1.96771747599446E+01   0.00000000000000E+00   0.00000000000000E+00
     -2.29919160324030E-17  -5.23207065894890E-10  -5.23207088886806E-10  -2.23475617176944E-15
      4.03543495198903E-01
      8.00000000000000E-01   8.00000000000000E-01   0.00000000000000E+00   0.00000000000000E+00   2.11794543193122E-14
     -8.51753188060541E-18   2.11709367874316E-14   9.46152241444186E-15   0.00000000000000E+00  -1.03747815149622E-12
      0.00000000000000E+00   0.00000000000000E+00  -8.86701966936003E-19   1.03747947503684E-09   1.03747947415014E-09
     -7.21394052381414E-15  -2.01771747599451E+01  -2.01771747599441E+01   0.00000000000000E+00   0.00000000000000E+00
     -2.29923713914156E-17  -1.03750062209455E-09  -1.03750064508693E-09  -2.24758189062771E-15
      4.13543495198903E-01
      8.00000000000000E-01   8.00000000000000E-01   0.00000000000000E+00   0.00000000000000E+00   2.00689419648701E-14
     -1.89987625510752E-17   2.00499432023190E-14   9.45293201096558E-15   0.00000000000000E+00  -1.94132221035549E-12
      0.00000000000000E+00   0.00000000000000E+00  -8.84134565966824E-19   1.94134252680449E-09   1.94134252592036E-09
     -7.19209759656813E-15  -2.06771747599451E+01  -2.06771747599432E+01   0.00000000000000E+00   0.00000000000000E+00
     -2.29928429374491E-17  -1.94136255287071E-09  -1.94136257586356E-09  -2.26083441439743E-15
      4.23543495198903E-01
      8.00000000000000E-01   8.00000000000000E-01   0.00000000000000E+00   0.00000000000000E+00   1.90294233009909E-14
      2.09367502020593E-18   1.90315169760111E-14   9.44582267370435E-15   0.00000000000000E+00  -3.41772636096649E-12
      0.00000000000000E+00   0.00000000000000E+00  -8.81437197135377E-19   3.41771408441719E-09   3.41771408353575E-09
     -7.17121048357810E-15  -2.11771747599451E+01  -2.11771747599417E+01   0.00000000000000E+00   0.00000000000000E+00
     -2.29933343070809E-17  -3.41773309205940E-09  -3.41773311505273E-09  -2.27461219012629E-15
      4.33543495198903E-01
      8.00000000000000E-01   8.00000000000000E-01   0.00000000000000E+00   0.00000000000000E+00   1.81196285570422E-14
     -3.36645405333127E-18   1.81162621029888E-14   9.44046440116225E-15   0.00000000000000E+00  -5.65754396724644E-12
      0.00000000000000E+00   0.00000000000000E+00  -8.78735197945610E-19   5.65750974727411E-09   5.65750974639538E-09
     -7.15144726926570E-15  -2.16771747599451E+01  -2.16771747599395E+01   0.00000000000000E+00   0.00000000000000E+00
     -2.29938492965979E-17  -5.65752783966367E-09  -5.65752786265752E-09  -2.28901713189655E-15
      4.43543495198903E-01
      8.00000000000000E-01   8.00000000000000E-01   0.00000000000000E+00   0.00000000000000E+00   1.73483549317656E-14
      8.83012809418230E-18   1.73571850598597E-14   9.43704486287629E-15   0.00000000000000E+00  -8.82627924564332E-12
      0.00000000000000E+00   0.00000000000000E+00  -8.76061346963780E-19   8.82625280691960E-09   8.82625280604354E-09
     -7.13290845739962E-15  -2.21771747599451E+01  -2.21771747599363E+01   0.00000000000000E+00   0.00000000000000E+00
     -2.29943912084823E-17  -8.82627014023416E-09  -8.82627016322855E-09  -2.30413640547667E-15
      4.53543495198903E-01
      8.00000000000000E-01   8.00000000000000E-01   0.00000000000000E+00   0.00000000000000E+00   1.66950798831585E-14
     -2.77552546719181E-18   1.66923043576913E-14   9.43564551002897E-15   0.00000000000000E+00  -1.30400239439874E-11
      0.00000000000000E+00   0.00000000000000E+00  -8.73393888564937E-19   1.30399786074843E-08   1.30399786066109E-08
     -7.11561594611973E-15  -2.26771747599451E+01  -2.26771747599321E+01   0.00000000000000E+00   0.00000000000000E+00
     -2.29949623827664E-17  -1.30399952759201E-08  -1.30399952989151E-08  -2.32002956390922E-15
      4.63543495198903E-01
      8.00000000000000E-01   8.00000000000000E-01   0.00000000000000E+00   0.00000000000000E+00   1.61325457417486E-14
     -5.60378185063683E-18   1.61269419598980E-14   9.43625075717299E-15   0.00000000000000E+00  -1.83592118993614E-11