DF-ISE text

Info {
  version   = 1.0
  type      = xyplot
  datasets  = [
    "frequency"
    "v(Ntop)" "v(Ptop)" "v(Pbot)" "a(Ntop,Ntop)" "c(Ntop,Ntop)"
    "a(Ntop,Ptop)" "c(Ntop,Ptop)" "a(Ntop,Pbot)" "c(Ntop,Pbot)" "a(Ptop,Ntop)"
    "c(Ptop,Ntop)" "a(Ptop,Ptop)" "c(Ptop,Ptop)" "a(Ptop,Pbot)" "c(Ptop,Pbot)"
    "a(Pbot,Ntop)" "c(Pbot,Ntop)" "a(Pbot,Ptop)" "c(Pbot,Ptop)" "a(Pbot,Pbot)"
    "c(Pbot,Pbot)" ]
  functions = [
    Frequency
    Voltage Voltage Voltage Admittance Capacitance
    Admittance Capacitance Admittance Capacitance Admittance
    Capacitance Admittance Capacitance Admittance Capacitance
    Admittance Capacitance Admittance Capacitance Admittance
    Capacitance ]
}

Data {
      1.00000000000000E+04
      1.00000000000000E+00   0.00000000000000E+00  -3.00000000000000E-01   7.59602327542059E-13   8.49729971884279E-16
     -8.87428790035535E-15  -4.94498567133570E-16  -3.35237385147923E-14  -3.55231404750665E-16  -8.87457183232679E-15
     -4.94498556735209E-16   7.59602327542059E-13   4.94498664618970E-16   4.71532068514519E-15  -1.07883676399891E-22
     -3.35234039470505E-14  -3.55231415149545E-16   4.71500756922696E-15  -9.74852375042782E-23   0.00000000000000E+00
      3.55231512631775E-16
      1.00000000000000E+04
      1.00000000000000E+00   0.00000000000000E+00  -8.60000000000000E-01   4.55761396525235E-13   8.00542523707858E-16
     -8.22058327154292E-15  -4.94498591897035E-16  -2.64288103589535E-14  -3.06043931810774E-16  -8.22026306447068E-15
     -4.94498588697974E-16   9.11522793050471E-13   4.94498663435985E-16   4.06108992509529E-15  -7.47388552937287E-23
     -2.64290644284506E-14  -3.06043935010568E-16   4.06137969205814E-15  -7.15396785789252E-23   1.51920465508412E-13
      3.06044006548305E-16
      1.00000000000000E+04
      1.00000000000000E+00   0.00000000000000E+00  -1.90533333333333E+00   1.51920465508412E-13   7.66172128029903E-16
     -7.76365198200182E-15  -4.94498607993132E-16  -2.02297091392102E-14  -2.71673520036747E-16  -7.76518820339813E-15
     -4.94498593310477E-16   6.07681862033647E-13   4.94498659397290E-16   3.60613823005138E-15  -6.60928977357067E-23
     -2.02281694525986E-14  -2.71673534719329E-16   3.60459416535885E-15  -5.14102531522959E-23  -3.03840931016824E-13
      2.71673586129168E-16
      1.00000000000000E+04
      1.00000000000000E+00   0.00000000000000E+00  -3.90308148148148E+00   1.51920465508412E-13   6.77934818768582E-16
     -6.59084000995390E-15  -4.94498638609622E-16  -9.43100127277340E-15  -1.83436180158894E-16  -6.59387176075767E-15
     -4.94498619647557E-16   9.11522793050471E-13   4.94498652357132E-16   2.43501212423204E-15  -3.27107980777340E-23
     -9.42799363078923E-15  -1.83436199120862E-16   2.43199599702264E-15  -1.37487539675514E-23   1.67112512059253E-12
      1.83436212868769E-16
      1.00000000000000E+04
      1.00000000000000E+00   0.00000000000000E+00  -6.90308148148148E+00   3.03840931016824E-13   6.53810180043441E-16
     -6.27000220422531E-15  -4.94498625126197E-16  -1.06430631277856E-14  -1.59311554917145E-16  -6.27067772290155E-15
     -4.94498623550449E-16  -3.03840931016824E-13   4.94498644869958E-16   2.11199988469259E-15  -2.13233350882242E-23
     -1.06424083931269E-14  -1.59311556492431E-16   2.11130791013179E-15  -1.97477017873720E-23  -4.55761396525235E-13
      1.59311576238996E-16
      1.00000000000000E+04
      1.00000000000000E+00   0.00000000000000E+00  -9.90308148148148E+00   7.59602327542059E-13   6.31285697164301E-16
     -5.97054907878060E-15  -4.94498633694879E-16  -5.58268561373676E-15  -1.36787063469361E-16  -5.97437747152289E-15
     -4.94498617244388E-16   3.03840931016824E-13   4.94498638267641E-16   1.81577996089414E-15  -2.10249368196791E-23
     -5.57885515749479E-15  -1.36787079919562E-16   1.81192291014992E-15  -4.57454603009442E-24  -1.06344325855888E-12
      1.36787084492948E-16
      1.00000000000000E+04
      1.00000000000000E+00   0.00000000000000E+00  -1.29030814814815E+01   7.59602327542059E-13   6.04863861629405E-16
     -5.61924960317670E-15  -4.94498630366255E-16  -3.79500789035001E-15  -1.10365231263067E-16  -5.62283073257305E-15
     -4.94498618731968E-16   9.11522793050471E-13   4.94498630765868E-16   1.46438002443822E-15  -1.20416972140776E-23
     -3.79139248495740E-15  -1.10365242897356E-16   1.46076334887581E-15  -4.07406284325309E-25  -3.03840931016824E-13
      1.10365243303987E-16
      1.00000000000000E+04
      1.00000000000000E+00   0.00000000000000E+00  -1.59030814814815E+01   7.59602327542059E-13   6.04326676044661E-16
     -5.61203806128039E-15  -4.94498625778360E-16  -3.71551033006808E-15  -1.09828050266243E-16  -5.61651789957632E-15
     -4.94498611604553E-16   9.11522793050471E-13   4.94498627396156E-16   1.45808500548256E-15  -1.58007594546377E-23
     -3.71102837212856E-15  -1.09828064439815E-16   1.45357631605385E-15  -1.62704834386136E-24   1.51920465508412E-13
      1.09828066065432E-16
      1.00000000000000E+04
      1.00000000000000E+00   0.00000000000000E+00  -1.89030814814815E+01   6.07681862033647E-13   6.00118703813904E-16
     -5.55600533374743E-15  -4.94498618093039E-16  -4.35218322487965E-15  -1.05620085720792E-16  -5.55938105213244E-15
     -4.94498610267196E-16   1.06344325855888E-12   4.94498623408516E-16   1.40097214865812E-15  -1.31471287780142E-23
     -4.34888398869650E-15  -1.05620093546113E-16   1.39761511880066E-15  -5.32148110165925E-24   4.55761396525235E-13
      1.05620098865748E-16
      1.00000000000000E+04
      1.00000000000000E+00   0.00000000000000E+00  -2.19030814814815E+01   1.06344325855888E-12   5.86269972129283E-16
     -5.37188541029432E-15  -4.94498616653016E-16  -2.65006992937815E-15  -9.17713554761914E-17  -5.37663744678117E-15
     -4.94498605968969E-16   9.11522793050471E-13   4.94498617833587E-16   1.21831097722337E-15  -1.18641796171412E-23
     -2.64533523440946E-15  -9.17713661601200E-17   1.21355927720550E-15  -1.18018613353337E-24   1.51920465508412E-13
      9.17713673387865E-17
      1.00000000000000E+04
      1.00000000000000E+00   0.00000000000000E+00  -2.49030814814815E+01   7.59602327542059E-13   5.85762103658053E-16
     -5.36509399036201E-15  -4.94498612848871E-16  -2.71587599641644E-15  -9.12634908091175E-17  -5.36973712619273E-15
     -4.94498603689500E-16   6.07681862033647E-13   4.94498615332306E-16   1.21140066606112E-15  -1.16478696693435E-23
     -2.71126844278940E-15  -9.12634999683674E-17   1.20677743067811E-15  -2.48855513267644E-24  -4.55761396525235E-13
      9.12635024561565E-17
      1.00000000000000E+04
      1.00000000000000E+00   0.00000000000000E+00  -2.79030814814815E+01   3.03840931016824E-13   5.76019587575155E-16
     -5.23555989660340E-15  -4.94498600977556E-16  -4.42783468226483E-15  -8.15209865975308E-17  -5.23866158205405E-15
     -4.94498598151537E-16   6.07681862033647E-13   4.94498610577890E-16   1.08041432247303E-15  -1.24325289791733E-23
     -4.42473134855661E-15  -8.15209894234471E-17   1.07729441135298E-15  -9.60655562014400E-24  -3.03840931016824E-13
      8.15209990300368E-17
      1.00000000000000E+04
      1.00000000000000E+00   0.00000000000000E+00  -3.09030814814815E+01   6.07681862033647E-13   5.73168243162113E-16
     -5.19763352511263E-15  -4.94498604522281E-16  -2.01959640600620E-15  -7.86696386397699E-17  -5.20264512142232E-15
     -4.94498597571081E-16   7.59602327542059E-13   4.94498607297887E-16   1.04438913710335E-15  -9.72976374473938E-24
     -2.01458988816609E-15  -7.86696455909539E-17   1.03938115675348E-15  -2.77857351341403E-24   4.55761396525235E-13
      7.86696483655344E-17
      1.00000000000000E+04
      1.00000000000000E+00   0.00000000000000E+00  -3.39030814814815E+01   4.55761396525235E-13   5.72845433368415E-16
     -5.19330568628897E-15  -4.94498601620263E-16  -2.06666765914939E-15  -7.83468317480821E-17  -5.19816787890089E-15
     -4.94498595802666E-16   7.59602327542059E-13   4.94498605393232E-16   1.03995834115417E-15  -9.58991775912224E-24
     -2.06176912476755E-15  -7.83468375657232E-17   1.03506674298405E-15  -3.77229904145916E-24   1.51920465508412E-13
      7.83468413352427E-17
      1.00000000000000E+04
      1.00000000000000E+00   0.00000000000000E+00  -3.69030814814815E+01   1.51920465508412E-13   5.69591043129657E-16
     -5.15003436184949E-15  -4.94498594870159E-16  -2.86744545317630E-15  -7.50924482594225E-17  -5.15379454131418E-15
     -4.94498592849771E-16   7.59602327542059E-13   4.94498602409559E-16   9.95573685866651E-16  -9.56633055088863E-24
     -2.86369627494589E-15  -7.50924502796723E-17   9.91804495610588E-16  -7.54600973046618E-24  -3.03840931016824E-13
      7.50924578221643E-17
      1.00000000000000E+04
      1.00000000000000E+00   0.00000000000000E+00  -3.99030814814815E+01  -6.07681862033647E-13   5.63391922643192E-16
     -5.06761859732303E-15  -4.94498593954736E-16  -1.59483613456897E-15  -6.88933286883683E-17  -5.07270579869500E-15
     -4.94498590359078E-16   1.06344325855888E-12   4.94498598405934E-16   9.14534251587501E-16  -8.04608498384159E-24
     -1.58967024056571E-15  -6.88933322843316E-17   9.09421287326822E-16  -4.45025219786510E-24  -6.07681862033647E-13
      6.88933367341270E-17
      1.00000000000000E+04
      1.00000000000000E+00   0.00000000000000E+00  -4.29030814814815E+01  -3.03840931016824E-13   5.63255798511423E-16
     -5.06581785736086E-15  -4.94498591812920E-16  -1.61647063001870E-15  -6.87572066984661E-17  -5.07098088747759E-15
     -4.94498588712472E-16   1.06344325855888E-12   4.94498596965532E-16   9.12767795269627E-16  -8.25524349400215E-24
     -1.61126879834513E-15  -6.87572097990513E-17   9.07590847722958E-16  -5.15471948832715E-24  -3.03840931016824E-13
      6.87572149537591E-17
      1.00000000000000E+04
      1.00000000000000E+00   0.00000000000000E+00  -4.59030814814815E+01   1.51920465508412E-13   5.62775867788206E-16
     -5.05941479837895E-15  -4.94498589181894E-16  -1.69915083345686E-15  -6.82772786062332E-17  -5.06427117163067E-15
     -4.94498587331703E-16   1.36728418957571E-12   4.94498595321690E-16   9.06074194665434E-16  -7.99207708901416E-24
     -1.69423926982838E-15  -6.82772804566179E-17   9.01195387179709E-16  -6.14178001898494E-24  -3.03840931016824E-13
      6.82772865970206E-17
      1.00000000000000E+04
      1.00000000000000E+00   0.00000000000000E+00  -4.89030814814815E+01  -3.03840931016824E-13   5.56239555932821E-16
     -4.97253680165045E-15  -4.94498582631661E-16  -2.14544027340589E-15  -6.17409733011055E-17  -4.97670232128303E-15
     -4.94498583157737E-16   1.06344325855888E-12   4.94498591306214E-16   8.18541442262350E-16  -8.14824053035712E-24
     -2.14125147058475E-15  -6.17409727749931E-17   8.14345282835979E-16  -8.67433832529338E-24  -7.59602327542059E-13
      6.17409814492752E-17
      1.00000000000000E+04
      1.00000000000000E+00   0.00000000000000E+00  -5.19030814814815E+01  -4.55761396525235E-13   5.55734262338341E-16
     -4.96578488016705E-15  -4.94498583027537E-16  -1.30531228478352E-15  -6.12356793107523E-17  -4.97111513498404E-15
     -4.94498582508020E-16   1.06344325855888E-12   4.94498589606598E-16   8.12933079695070E-16  -7.09906696785785E-24
     -1.29996846406791E-15  -6.12356798304168E-17   8.07616621429174E-16  -6.57945756814408E-24   6.07681862033647E-13
      6.12356864086688E-17
      1.00000000000000E+04
      1.00000000000000E+00   0.00000000000000E+00  -5.49030814814815E+01  -1.06344325855888E-12   5.55624613136926E-16
     -4.96435565165247E-15  -4.94498581422876E-16  -1.32386687683406E-15  -6.11260317139618E-17  -4.96965639703441E-15
     -4.94498581366814E-16   1.36728418957571E-12   4.94498588526131E-16   8.11454553989995E-16  -7.16147517193006E-24
     -1.31852065787157E-15  -6.11260317701886E-17   8.06139576128499E-16  -7.10531184960981E-24  -4.55761396525235E-13
      6.11260388728558E-17
      1.00000000000000E+04
      1.00000000000000E+00   0.00000000000000E+00  -5.79030814814815E+01  -6.07681862033647E-13   5.55271065899721E-16
     -4.95966598108291E-15  -4.94498579399554E-16  -1.39082596984431E-15  -6.07724865001077E-17  -4.96467838258805E-15
     -4.94498580201353E-16   1.36728418957571E-12   4.94498587262356E-16   8.06486843506885E-16  -7.06422655281416E-24
     -1.38577293885186E-15  -6.07724856982664E-17   8.01426698659621E-16  -7.86605199976533E-24   3.03840931016824E-13
      6.07724935637673E-17
      1.00000000000000E+04
      1.00000000000000E+00   0.00000000000000E+00  -6.09030814814815E+01  -4.55761396525235E-13   5.50893292767417E-16
     -4.90146047981415E-15  -4.94498571362847E-16  -2.65826551989940E-15  -5.63947214045351E-17  -4.90551954501352E-15
     -4.94498574196048E-16   9.11522793050471E-13   4.94498584244279E-16   7.47316769336963E-16  -1.00483069631498E-23
     -2.65422711826502E-15  -5.63947185712893E-17   7.43267561328125E-16  -1.28815338857393E-23   4.55761396525235E-13
      5.63947314492289E-17
      1.00000000000000E+04
      1.00000000000000E+00   0.00000000000000E+00  -6.39030814814815E+01  -3.03840931016824E-13   5.49633704031725E-16
     -4.88479746534803E-15  -4.94498574033878E-16  -1.08946893463687E-15  -5.51351299978059E-17  -4.89014404153724E-15
     -4.94498576083195E-16   9.11522793050471E-13   4.94498582314363E-16   7.31927145095209E-16  -6.23121960806324E-24
     -1.08408917686542E-15  -5.51351279484083E-17   7.26530500242276E-16  -8.28059059162445E-24  -3.03840931016824E-13
      5.51351362287950E-17
      1.00000000000000E+04
      1.00000000000000E+00   0.00000000000000E+00  -6.69030814814815E+01  -3.03840931016824E-13   5.49570247365405E-16
     -4.88396742686723E-15  -4.94498572811818E-16  -1.10073553491123E-15  -5.50716745535293E-17  -4.88945158334142E-15
     -4.94498575129409E-16   9.11522793050471E-13   4.94498581471501E-16   7.31140104140268E-16  -6.34140313443043E-24
     -1.09523386322598E-15  -5.50716722361118E-17   7.25670954061072E-16  -8.65887636838649E-24   3.03840931016824E-13
      5.50716808953046E-17
      1.00000000000000E+04
      1.00000000000000E+00   0.00000000000000E+00  -6.99030814814815E+01   0.00000000000000E+00   5.49418426747943E-16
     -4.88205711897375E-15  -4.94498571440963E-16  -1.12925722041390E-15  -5.49198553069367E-17  -4.88737938880051E-15
     -4.94498574210686E-16   9.11522793050471E-13   4.94498580556886E-16   7.28996581119358E-16  -6.34431238201458E-24
     -1.12390518990836E-15  -5.49198525372144E-17   7.23642255089367E-16  -9.11403280799154E-24   0.00000000000000E+00
      5.49198616513459E-17
      1.00000000000000E+04
      1.00000000000000E+00   0.00000000000000E+00  -7.29030814814815E+01   0.00000000000000E+00   5.48685016452588E-16
     -4.87242207060060E-15  -4.94498568886841E-16  -1.33355988212183E-15  -5.41864475656973E-17  -4.87721863528502E-15
     -4.94498572507000E-16   9.11522793050471E-13   4.94498579186114E-16   7.18759196845504E-16  -6.67927723330178E-24
     -1.32870720901790E-15  -5.41864439455316E-17   7.13904181288583E-16  -1.02994392622012E-23   1.51920465508412E-13
      5.41864542428014E-17
      1.00000000000000E+04
      1.00000000000000E+00   0.00000000000000E+00  -7.59030814814815E+01  -9.11522793050471E-13   5.44664234537168E-16
     -4.81927518588182E-15  -4.94498565203961E-16  -9.68260856799790E-16  -5.01656693331482E-17  -4.82435482829247E-15
     -4.94498569406764E-16   9.11522793050471E-13   4.94498575210036E-16   6.65668624547003E-16  -5.80323034074641E-24
     -9.63077170148483E-16  -5.01656651305857E-17   6.60541121117734E-16  -1.00058623814642E-23   6.07681862033647E-13
      5.01656751367282E-17
      1.00000000000000E+04
      1.00000000000000E+00   0.00000000000000E+00  -7.89030814814815E+01  -7.59602327542059E-13   5.44617076837342E-16
     -4.81902161582470E-15  -4.94498562522756E-16  -9.30912298482800E-16  -5.01185143145420E-17  -4.82457291831469E-15
     -4.94498566744688E-16   7.59602327542059E-13   4.94498572813210E-16   6.65511534441347E-16  -6.07117534938761E-24
     -9.25301157352642E-16  -5.01185100927962E-17   6.59943267742647E-16  -1.02929752992035E-23   4.55761396525235E-13
      5.01185203864334E-17
      1.00000000000000E+04
      1.00000000000000E+00   0.00000000000000E+00  -8.19030814814815E+01  -3.03840931016824E-13   5.44559939549323E-16
     -4.81873375946574E-15  -4.94498559195001E-16  -9.41762407588963E-16  -5.00613803542751E-17  -4.82430652944601E-15
     -4.94498563627691E-16   7.59602327542059E-13   4.94498569932852E-16   6.64809091066605E-16  -6.30949470410077E-24
     -9.36150000714457E-16  -5.00613759216878E-17   6.59216243554727E-16  -1.07421101536907E-23   1.51920465508412E-13
      5.00613866634314E-17
      1.00000000000000E+04
      1.00000000000000E+00   0.00000000000000E+00  -8.49030814814815E+01  -3.03840931016824E-13   5.44424201924020E-16
     -4.81755474478564E-15  -4.94498554144742E-16  -9.69714859446340E-16  -4.99256477792256E-17  -4.82304739329528E-15
     -4.94498558878943E-16   6.07681862033647E-13   4.94498565686845E-16   6.62948258207481E-16  -6.80844846001265E-24
     -9.64259572735457E-16  -4.99256430449124E-17   6.57469080309829E-16  -1.15427277335677E-23   1.51920465508412E-13
      4.99256545880755E-17
      1.00000000000000E+04
      1.00000000000000E+00   0.00000000000000E+00  -8.79030814814815E+01   0.00000000000000E+00   5.43795977317426E-16
     -4.81015604346774E-15  -4.94498541968072E-16  -1.16862840066886E-15  -4.92974353492842E-17  -4.81514417475238E-15
     -4.94498547236913E-16   9.11522793050471E-13   4.94498556694960E-16   6.54233879693255E-16  -9.46164753489385E-24
     -1.16362951208662E-15  -4.92974300804560E-17   6.49237667514617E-16  -1.47304799090109E-23   1.51920465508412E-13
      4.92974448105239E-17
      1.00000000000000E+04
      1.00000000000000E+00   0.00000000000000E+00  -9.09030814814815E+01   1.51920465508412E-13   5.40499771616294E-16
     -4.76842410789959E-15  -4.94498481973927E-16  -8.74229962621205E-16  -4.60012896423129E-17  -4.77360801993354E-15
     -4.94498487736069E-16   7.59602327542059E-13   4.94498509615807E-16   6.10917155234620E-16  -2.18877626487260E-23
     -8.69045924475025E-16  -4.60012838802262E-17   6.05742792921889E-16  -2.76498611749168E-23   3.03840931016824E-13
      4.60013115303016E-17
      1.00000000000000E+04
      1.00000000000000E+00   0.00000000000000E+00  -9.39030814814815E+01  -1.51920465508412E-13   5.40452113112875E-16
     -4.77095504000160E-15  -4.94498394559134E-16  -8.06253880366917E-16  -4.59537185536549E-17  -4.77662431189814E-15
     -4.94498400356696E-16   0.00000000000000E+00   4.94498426848692E-16   6.11166223070764E-16  -2.64978532061092E-23
     -8.00569808985930E-16  -4.59537127560691E-17   6.05476099576484E-16  -3.22954328884900E-23  -1.06344325855888E-12
      4.59537450517296E-17
      1.00000000000000E+04
      1.00000000000000E+00   0.00000000000000E+00  -9.69030814814815E+01   1.51920465508412E-13   5.40413311969458E-16
     -4.77425282537629E-15  -4.94498278026686E-16  -8.14416400246951E-16  -4.59150339427025E-17  -4.78001855824769E-15
     -4.94498283940522E-16   9.11522793050471E-13   4.94498318275112E-16   6.11163839255428E-16  -3.43417421006550E-23
     -8.08614854030728E-16  -4.59150280289931E-17   6.05389503999584E-16  -4.02554816840457E-23  -1.36728418957571E-12
      4.59150682857893E-17
      1.00000000000000E+04
      1.00000000000000E+00   0.00000000000000E+00  -9.99030814814815E+01   1.51920465508412E-13   5.40333835230772E-16
     -4.77798485774466E-15  -4.94498104343027E-16  -8.31662778570977E-16  -4.58357308877027E-17  -4.78372135422461E-15
     -4.94498110406778E-16   6.07681862033647E-13   4.94498160935309E-16   6.10631438914974E-16  -5.05348886184902E-23
     -8.25898312268660E-16  -4.58357248240479E-17   6.04886884989976E-16  -5.65985669442339E-23  -3.03840931016824E-13
      4.58357814220933E-17
      1.00000000000000E+04
      1.00000000000000E+00   0.00000000000000E+00  -1.02903081481482E+02   6.07681862033647E-13   5.40090733243426E-16
     -4.78123832319931E-15  -4.94497772495247E-16  -8.97102833720414E-16  -4.55929607480939E-17  -4.78673831806653E-15
     -4.94497778780881E-16   6.07681862033647E-13   4.94497879642249E-16   6.07956759439604E-16  -1.00868529781260E-22
     -8.91569406446634E-16  -4.55929544625826E-17   6.02447587616940E-16  -1.07154072592962E-22   1.51920465508412E-13
      4.55930616158631E-17
      1.00000000000000E+04
      1.00000000000000E+00   0.00000000000000E+00  -1.05903081481482E+02   0.00000000000000E+00   5.37996594013687E-16
     -4.76493013096623E-15  -4.94496302446894E-16  -1.93774198367887E-15  -4.35002915667063E-17  -4.76914046229794E-15
     -4.94496309178199E-16   9.11522793050471E-13   4.94496868848387E-16   5.80448147236533E-16  -5.59673304234591E-22
     -1.93350904127756E-15  -4.35002848353771E-17   5.76206597108065E-16  -5.66404625299345E-22   3.03840931016824E-13
      4.35008512401643E-17
      1.00000000000000E+04
      1.00000000000000E+00   0.00000000000000E+00  -1.08903081481482E+02   1.21536372406729E-12   5.36927645337492E-16
     -4.77303205795307E-15  -4.94492372893613E-16  -7.12474041045205E-16  -4.24352724438303E-17  -4.77870878377631E-15
     -4.94492379706769E-16   1.67112512059253E-12   4.94493325200480E-16   5.70215256780753E-16  -9.45497987251537E-22
     -7.06731520546963E-16  -4.24352656306967E-17   5.64477607898370E-16  -9.52311125027563E-22  -9.11522793050471E-13
      4.24362179419887E-17
      1.00000000000000E+04
      1.00000000000000E+00   0.00000000000000E+00  -1.11903081481482E+02   4.55761396525235E-13   5.36900345823131E-16
     -4.80050785957782E-15  -4.94487494980021E-16  -7.19964608929576E-16  -4.24128508430223E-17  -4.80652422523659E-15
     -4.94487501881557E-16   6.07681862033647E-13   4.94488709903281E-16   5.73478647929878E-16  -1.20802209946143E-21
     -7.13863453507437E-16  -4.24128439417129E-17   5.67431613610265E-16  -1.21492345402681E-21   7.59602327542059E-13
      4.24140588660702E-17
      1.00000000000000E+04
      1.00000000000000E+00   0.00000000000000E+00  -1.14903081481482E+02   1.51920465508412E-13   5.36855717824381E-16
     -4.83421273987806E-15  -4.94480915500295E-16  -7.32519301065875E-16  -4.23748023240307E-17  -4.84040919805969E-15
     -4.94480922493655E-16   3.03840931016824E-13   4.94482585518928E-16   5.77140070910770E-16  -1.66302531209787E-21
     -7.26294041334532E-16  -4.23747953307444E-17   5.70932890855322E-16  -1.67001861355291E-21  -4.55761396525235E-13
      4.23764653499014E-17
      1.00000000000000E+04
      1.00000000000000E+00   0.00000000000000E+00  -1.17903081481482E+02   7.59602327542059E-13   5.36766091502485E-16
     -4.87703148718487E-15  -4.94470925855378E-16  -7.56543364715410E-16  -4.22951656470316E-17  -4.88321868580790E-15
     -4.94470932972716E-16   0.00000000000000E+00   4.94473560730252E-16   5.81330420407894E-16  -2.62775678631504E-21
     -7.50307436906055E-16  -4.22951585297799E-17   5.75114804853441E-16  -2.63487405668564E-21   1.06344325855888E-12
      4.22977934036815E-17
      1.00000000000000E+04
      1.00000000000000E+00   0.00000000000000E+00  -1.20903081481482E+02   7.59602327542059E-13   5.36491437618221E-16
     -4.93480419815974E-15  -4.94451068071689E-16  -8.42856014001352E-16  -4.20403695464633E-17  -4.94007664495470E-15
     -4.94451075354251E-16  -4.55761396525235E-13   4.94456855796760E-16   5.84991543033964E-16  -5.78043652048566E-21
     -8.37527523720289E-16  -4.20403622638487E-17   5.79652968422430E-16  -5.78771912356401E-21  -7.59602327542059E-13
      4.20461499835809E-17
      1.00000000000000E+04
      1.00000000000000E+00   0.00000000000000E+00  -1.23903081481482E+02   7.59602327542059E-13   5.34345542224897E-16
     -5.02053242319990E-15  -4.94358767665304E-16  -1.75703300370250E-15  -3.99867745595030E-17  -5.01133505621598E-15
     -4.94358775458546E-16  -6.07681862033647E-13   4.94392166726350E-16   5.66684368359643E-16  -3.33912677170096E-20
     -1.76622978624183E-15  -3.99867667662657E-17   5.75881164000006E-16  -3.33990609548322E-20  -1.51920465508412E-13
      4.00201658277276E-17
      1.00000000000000E+04
      1.00000000000000E+00   0.00000000000000E+00  -1.26903081481482E+02  -1.51920465508412E-13   5.33454860029811E-16
     -5.18012778160918E-15  -4.94131173113034E-16  -6.88206286172573E-16  -3.93236869167095E-17  -5.18535606635568E-15
     -4.94131180501959E-16   1.51920465508412E-13   4.94185611428752E-16   5.80160257356351E-16  -5.44309281095995E-20
     -6.82957582850861E-16  -3.93236795278251E-17   5.74922037209102E-16  -5.44383170001827E-20   1.06344325855888E-12
      3.93781178446334E-17
      1.00000000000000E+04
      1.00000000000000E+00   0.00000000000000E+00  -1.29903081481482E+02   7.59602327542059E-13   5.33069136672559E-16
     -5.44045745831860E-15  -4.93806351402923E-16  -7.25789022179884E-16  -3.92627852695319E-17  -5.44458009264781E-15
     -4.93806359195575E-16  -1.51920465508412E-13   4.93884220860865E-16   6.10592497390215E-16  -7.78616677033866E-20
     -7.21627941238576E-16  -3.92627774769979E-17   6.06453163009258E-16  -7.78694602547957E-20   0.00000000000000E+00
      3.93406469377650E-17
      1.00000000000000E+04
      1.00000000000000E+00   0.00000000000000E+00  -1.32903081481482E+02   9.11522793050471E-13   5.32396018956927E-16
     -5.83243951861641E-15  -4.93261482654719E-16  -7.86676319384623E-16  -3.91345363021359E-17  -5.83205142218872E-15
     -4.93261491123513E-16   9.11522793050471E-13   4.93390942473517E-16   6.55373726964847E-16  -1.29451354134156E-19
     -7.87033161251678E-16  -3.91345278334069E-17   6.55743004334199E-16  -1.29459822872748E-19  -6.07681862033647E-13
      3.92639876592448E-17
      1.00000000000000E+04
      1.00000000000000E+00   0.00000000000000E+00  -1.35903081481482E+02   3.03840931016824E-13   5.30761565674653E-16
     -6.49159946590328E-15  -4.92012853535125E-16  -9.12479206944190E-16  -3.87487121394532E-17  -6.45892090034212E-15
     -4.92012863816163E-16   9.11522793050471E-13   4.92308994914677E-16   7.24551979226669E-16  -2.96131097875911E-19
     -9.45114213803371E-16  -3.87487018585248E-17   7.57205292732738E-16  -2.96141378820612E-19   1.21536372406729E-12
      3.90448432381475E-17
      1.00000000000000E+04
      1.00000000000000E+00   0.00000000000000E+00  -1.38903081481482E+02   6.07681862033647E-13   5.23821897915771E-16
     -7.80860739116606E-15  -4.86753578408759E-16  -1.42221080159933E-15  -3.70683195068951E-17  -7.34629672096900E-15
     -4.86753605106746E-16   7.59602327542059E-13   4.87913778869106E-16   7.94775191547719E-16  -1.16017376933216E-18
     -1.88449905046911E-15  -3.70682928089141E-17   1.25706274841878E-15  -1.16020046731380E-18   1.06344325855888E-12
      3.82284932782142E-17
      1.00000000000000E+04
      1.00000000000000E+00   0.00000000000000E+00  -1.41903081481482E+02   4.55761396525235E-13   4.96277375690963E-16
     -7.03827733835205E-15  -4.62579020855965E-16  -9.04452012126240E-16  -3.36983548348999E-17  -6.75245865904287E-15
     -4.62579041947074E-16   1.51920465508412E-12   4.66441902278275E-16   7.27610425367522E-16  -3.86286033251346E-18
     -1.19027723982841E-15  -3.36983337438306E-17   1.01344243193236E-15  -3.86288142358786E-18   7.59602327542059E-13
      3.75612151681046E-17
      1.00000000000000E+04
      1.00000000000000E+00   0.00000000000000E+00  -1.44903081481482E+02   3.03840931016824E-13   4.45408615873153E-16
     -3.09896164134364E-15  -4.17994463703511E-16  -4.37309246216584E-16  -2.74141521695737E-17  -2.45173322008710E-15
     -4.17994497233671E-16   9.11522793050471E-13   4.27242502331757E-16   2.21757912966676E-16  -9.24800510385870E-18
     -1.08449473930369E-15  -2.74141186394367E-17   8.68955286814356E-16  -9.24803863399931E-18  -3.03840931016824E-13
      3.66621572732038E-17
      1.00000000000000E+04
      1.00000000000000E+00   0.00000000000000E+00  -1.47903081481482E+02   1.51920465508412E-12   4.13710909377019E-16
     -1.33433636215766E-15  -3.90885045757557E-16  -1.86240034656530E-16  -2.28258636193864E-17  -1.15792631818391E-15
     -3.90885062694118E-16   9.11522793050471E-13   4.03918872130542E-16   4.85011746358057E-17  -1.30338094425291E-17
     -3.62666532998995E-16  -2.28258466828188E-17   2.24915486209713E-16  -1.30338263790959E-17   4.55761396525235E-13
      3.58596730620016E-17
      1.00000000000000E+04
      1.00000000000000E+00   0.00000000000000E+00  -1.50903081481482E+02  -3.03840931016824E-13   3.95251633049517E-16
     -8.58369854605489E-16  -3.74691044101243E-16  -9.98963234909944E-17  -2.05605889482415E-17  -7.74245527000486E-16
     -3.74691050782097E-16  -9.11522793050471E-13   3.89692150412609E-16   6.73656065500683E-19  -1.50010996344300E-17
     -1.84014853866587E-16  -2.05605822673905E-17   8.47906580274228E-17  -1.50011063152813E-17   1.51920465508412E-13
      3.55616885832006E-17
      1.00000000000000E+04
      1.00000000000000E+00   0.00000000000000E+00  -1.53903081481482E+02  -1.51920465508412E-13   3.79521412371684E-16
     -7.05228672175615E-16  -3.61081516869350E-16  -8.74196325961296E-17  -1.84398955022709E-17  -5.07733935488046E-16
     -3.61081523004414E-16   7.59602327542059E-13   3.77912270892244E-16  -4.00715819459303E-17  -1.68307478960412E-17
     -2.84894352678748E-16  -1.84398893672082E-17   1.57405293468946E-16  -1.68307540311040E-17  -3.03840931016824E-13
      3.52706433966119E-17
      1.00000000000000E+04
      1.00000000000000E+00   0.00000000000000E+00  -1.56903081481482E+02   6.07681862033647E-13   3.70027236439579E-16
     -4.31026900674047E-16  -3.52826742918557E-16  -3.65123032549763E-17  -1.72004935209548E-17  -2.01351490536162E-15
     -3.52826712777145E-16   1.51920465508412E-13   3.70747163650188E-16  -3.85877653618278E-16  -1.79204508760418E-17
      1.54600713310410E-15  -1.72005236623672E-17  -1.96839782114200E-15  -1.79204207346294E-17  -3.03840931016824E-13
      3.51209443976516E-17
      1.00000000000000E+04