DF-ISE text

Info {
  version   = 1.0
  type      = xyplot
  datasets  = [
    "time"
    "Ntop OuterVoltage" "Ntop InnerVoltage" "Ntop QuasiFermiPotential" "Ntop DisplacementCurrent" "Ntop eCurrent"
    "Ntop hCurrent" "Ntop TotalCurrent" "Ntop Charge" "Ptop OuterVoltage" "Ptop InnerVoltage"
    "Ptop QuasiFermiPotential" "Ptop DisplacementCurrent" "Ptop eCurrent" "Ptop hCurrent" "Ptop TotalCurrent"
    "Ptop Charge" "Pbot OuterVoltage" "Pbot InnerVoltage" "Pbot QuasiFermiPotential" "Pbot DisplacementCurrent"
    "Pbot eCurrent" "Pbot hCurrent" "Pbot TotalCurrent" "Pbot Charge" ]
  functions = [
    Time
    OuterVoltage InnerVoltage QuasiFermiPotential DisplacementCurrent eCurrent
    hCurrent TotalCurrent Charge OuterVoltage InnerVoltage
    QuasiFermiPotential DisplacementCurrent eCurrent hCurrent TotalCurrent
    Charge OuterVoltage InnerVoltage QuasiFermiPotential DisplacementCurrent
    eCurrent hCurrent TotalCurrent Charge ]
}

Data {
      0.00000000000000E+00
      0.00000000000000E+00   0.00000000000000E+00   0.00000000000000E+00   0.00000000000000E+00   5.47245736879224E-20
     -2.62260372893530E-17  -2.61713127156651E-17   2.76043908183869E-15   0.00000000000000E+00   0.00000000000000E+00
      0.00000000000000E+00   0.00000000000000E+00  -5.47245737153923E-20   3.92607228462301E-19   3.37882654746909E-19
     -8.53597786585168E-16   0.00000000000000E+00   0.00000000000000E+00   0.00000000000000E+00   0.00000000000000E+00
      2.58094047177879E-29   2.58334300608923E-17   2.58334300609181E-17  -1.90684129525353E-15
      0.00000000000000E+00
      0.00000000000000E+00   0.00000000000000E+00   0.00000000000000E+00   0.00000000000000E+00  -1.07080141536937E-19
      6.45317565389679E-19   5.38237423852743E-19   2.76043908183726E-15   0.00000000000000E+00   0.00000000000000E+00
      0.00000000000000E+00   0.00000000000000E+00   1.07080141548577E-19  -2.43160854988657E-21   1.04648532998690E-19
     -8.53597786583731E-16   0.00000000000000E+00   0.00000000000000E+00   0.00000000000000E+00   0.00000000000000E+00
     -8.44667842534971E-30  -6.42885956842985E-19  -6.42885956851432E-19  -1.90684129525353E-15
      1.00000000000000E-02
      8.00000000000000E-03   7.99999999999997E-03   0.00000000000000E+00   0.00000000000000E+00   2.72999828892461E-16
     -1.55598375548139E-18   2.71443845136980E-16   2.76842576397068E-15   0.00000000000000E+00   0.00000000000000E+00
      0.00000000000000E+00   0.00000000000000E+00  -3.66237413088783E-19  -8.08261456664287E-17  -8.11923830795175E-17
     -8.61509737952328E-16   0.00000000000000E+00   0.00000000000000E+00   0.00000000000000E+00   0.00000000000000E+00
     -6.88866473391417E-18  -1.83362797323548E-16  -1.90251462057462E-16  -1.90691602601835E-15
      2.37355555555556E-02
      1.89884444444444E-02   1.89884444444444E-02   0.00000000000000E+00   0.00000000000000E+00   5.86038375991901E-16
      2.92903087758581E-18   5.88967406869487E-16   2.77933513554632E-15   0.00000000000000E+00   0.00000000000000E+00
      0.00000000000000E+00   0.00000000000000E+00  -3.88637708778529E-19  -1.74917641375663E-16  -1.75306279084442E-16
     -8.72316476181839E-16   0.00000000000000E+00   0.00000000000000E+00   0.00000000000000E+00   0.00000000000000E+00
     -1.33874484268504E-17  -4.00273679358195E-16  -4.13661127785046E-16  -1.90701865936448E-15
      4.28523965432099E-02
      3.42819172345679E-02   3.42819172345679E-02   0.00000000000000E+00   0.00000000000000E+00   9.34414459169082E-16
     -5.61647140394182E-19   9.33852812028688E-16   2.79440521984438E-15   0.00000000000000E+00   0.00000000000000E+00
      0.00000000000000E+00   0.00000000000000E+00  -1.25079996844279E-18  -2.79833534094659E-16  -2.81084334063102E-16
     -8.87243739615619E-16   0.00000000000000E+00   0.00000000000000E+00   0.00000000000000E+00   0.00000000000000E+00
     -1.86652062502381E-17  -6.34103271715349E-16  -6.52768477965587E-16  -1.90716148022876E-15
      6.94587910111385E-02
      5.55670328089108E-02   5.55670328089109E-02   0.00000000000000E+00   0.00000000000000E+00   1.30349444489444E-15
      1.98748693063876E-18   1.30548193182508E-15   2.81516927996634E-15   0.00000000000000E+00   0.00000000000000E+00
      0.00000000000000E+00   0.00000000000000E+00  -2.34343946903767E-18  -3.87834385508452E-16  -3.90177824977490E-16
     -9.07809058242504E-16   0.00000000000000E+00   0.00000000000000E+00   0.00000000000000E+00   0.00000000000000E+00
     -2.18807328650885E-17  -8.93423373982505E-16  -9.15304106847593E-16  -1.90736022172384E-15
      1.06488979578391E-01
      8.51911836627130E-02   8.51911836627130E-02   0.00000000000000E+00   0.00000000000000E+00   1.68009994962548E-15
     -1.83352749034197E-18   1.67826642213514E-15   2.84368418684365E-15   0.00000000000000E+00   0.00000000000000E+00
      0.00000000000000E+00   0.00000000000000E+00  -2.40080836815904E-19  -4.86811430577657E-16  -4.87051511414473E-16
     -9.36047406839194E-16   0.00000000000000E+00   0.00000000000000E+00   0.00000000000000E+00   0.00000000000000E+00
     -2.29242448514779E-17  -1.16829066586919E-15  -1.19121491072067E-15  -1.90763678000445E-15
      1.58026773133214E-01
      1.26421418506571E-01   1.26421418506572E-01   0.00000000000000E+00   0.00000000000000E+00   2.07920222526468E-15
      1.11962786837677E-19   2.07931418805152E-15   2.88268123693345E-15   0.00000000000000E+00   0.00000000000000E+00
      0.00000000000000E+00   0.00000000000000E+00  -1.68947071108212E-18  -5.75324020113322E-16  -5.77013490824405E-16
     -9.74659602348563E-16   0.00000000000000E+00   0.00000000000000E+00   0.00000000000000E+00   0.00000000000000E+00
     -2.29802278606117E-17  -1.47932046936651E-15  -1.50230069722712E-15  -1.90802163458488E-15
      2.28816795791517E-01
      1.83053436633213E-01   1.83053436633213E-01   0.00000000000000E+00   0.00000000000000E+00   2.52302529243916E-15
      4.14083647697316E-19   2.52343937608686E-15   2.93505853637878E-15   0.00000000000000E+00   0.00000000000000E+00
      0.00000000000000E+00   0.00000000000000E+00  -1.35209419845526E-18  -6.57400240561866E-16  -6.58752334760321E-16
     -1.02650833098331E-15   0.00000000000000E+00   0.00000000000000E+00   0.00000000000000E+00   0.00000000000000E+00
     -2.29806588405789E-17  -1.84170638248596E-15  -1.86468704132654E-15  -1.90855020539548E-15
      3.26050824691732E-01
      2.60840659753386E-01   2.60840659753386E-01   0.00000000000000E+00   0.00000000000000E+00   3.06914237657506E-15
     -4.33448458348557E-19   3.06870892811672E-15   3.00500955047785E-15   0.00000000000000E+00   0.00000000000000E+00
      0.00000000000000E+00   0.00000000000000E+00  -2.80633856437933E-18  -7.68261779022148E-16  -7.71068117586528E-16
     -1.09573337071852E-15   0.00000000000000E+00   0.00000000000000E+00   0.00000000000000E+00   0.00000000000000E+00
     -2.29806785440053E-17  -2.27466013198618E-15  -2.29764081053019E-15  -1.90927617975933E-15
      4.26050824691732E-01
      3.40840659753386E-01   3.40840659753386E-01   0.00000000000000E+00   0.00000000000000E+00   3.61435162640123E-15
      5.32093374040232E-19   3.61488371977527E-15   3.07481649392240E-15   0.00000000000000E+00   0.00000000000000E+00
      0.00000000000000E+00   0.00000000000000E+00  -1.27631860158936E-18  -9.16260932714471E-16  -9.17537251316061E-16
     -1.16479377015785E-15   0.00000000000000E+00   0.00000000000000E+00   0.00000000000000E+00   0.00000000000000E+00
     -2.29807048320026E-17  -2.67436576362720E-15  -2.69734646845921E-15  -1.91002272376455E-15
      5.26050824691732E-01
      4.20840659753386E-01   4.20840659753385E-01   0.00000000000000E+00   0.00000000000000E+00   4.13738810048897E-15
     -1.55171844813312E-19   4.13723292864416E-15   3.14266663895569E-15   0.00000000000000E+00   0.00000000000000E+00
      0.00000000000000E+00   0.00000000000000E+00  -1.01791571201754E-18  -1.07243240131881E-15  -1.07345031703083E-15
     -1.23189753087591E-15   0.00000000000000E+00   0.00000000000000E+00   0.00000000000000E+00   0.00000000000000E+00
     -2.29807298235589E-17  -3.04080188178977E-15  -3.06378261161333E-15  -1.91076910807978E-15
      6.26050824691732E-01
      5.00840659753386E-01   5.00840659753386E-01   0.00000000000000E+00   0.00000000000000E+00   4.60703237638679E-15
      1.12747475054637E-18   4.60815985113734E-15   3.20867962341858E-15   0.00000000000000E+00   0.00000000000000E+00
      0.00000000000000E+00   0.00000000000000E+00  -2.18645377092317E-18  -1.19657352234808E-15  -1.19875997611901E-15
     -1.29716437965568E-15   0.00000000000000E+00   0.00000000000000E+00   0.00000000000000E+00   0.00000000000000E+00
     -2.29807548183693E-17  -3.38641912019995E-15  -3.40939987501832E-15  -1.91151524376291E-15
      7.26050824691732E-01
      5.80840659753386E-01   5.80840659753386E-01   0.00000000000000E+00   0.00000000000000E+00   5.03748165416519E-15
      3.01362713108407E-19   5.03778301687829E-15   3.27289400293832E-15   0.00000000000000E+00   0.00000000000000E+00
      0.00000000000000E+00   0.00000000000000E+00  -1.25168641722482E-18  -1.30186164725234E-15  -1.30311333366956E-15
     -1.36063295415292E-15   0.00000000000000E+00   0.00000000000000E+00   0.00000000000000E+00   0.00000000000000E+00
     -2.29807798089666E-17  -3.71168890339977E-15  -3.73466968320873E-15  -1.91226104878539E-15
      8.26050824691732E-01
      6.60840659753386E-01   6.60840659753386E-01   0.00000000000000E+00   0.00000000000000E+00   5.45200742268467E-15
      2.61148072260191E-19   5.45226857075693E-15   3.33527258543550E-15   0.00000000000000E+00   0.00000000000000E+00
      0.00000000000000E+00   0.00000000000000E+00  -2.60013787502212E-18  -1.40514756981049E-15  -1.40774770768552E-15
     -1.42226613257299E-15   0.00000000000000E+00   0.00000000000000E+00   0.00000000000000E+00   0.00000000000000E+00
     -2.29808047923496E-17  -4.02154005827907E-15  -4.04452086307142E-15  -1.91300645286252E-15
      9.26050824691732E-01
      7.40840659753386E-01   7.40840659753386E-01   0.00000000000000E+00   0.00000000000000E+00   5.85259071258898E-15
     -1.02012861039462E-19   5.85248869972794E-15   3.39571714917738E-15   0.00000000000000E+00   0.00000000000000E+00
      0.00000000000000E+00   0.00000000000000E+00  -1.81672481796348E-18  -1.51167567835014E-15  -1.51349240316811E-15
     -1.48196575482925E-15   0.00000000000000E+00   0.00000000000000E+00   0.00000000000000E+00   0.00000000000000E+00
     -2.29808297661317E-17  -4.31601546679371E-15  -4.33899629655984E-15  -1.91375139434813E-15
      1.00000000000000E+00
      8.00000000000000E-01   8.00000000000000E-01   0.00000000000000E+00   0.00000000000000E+00   6.14215563831008E-15
     -2.17458157658229E-20   6.14213389249431E-15   3.43910410981374E-15   0.00000000000000E+00   0.00000000000000E+00
      0.00000000000000E+00   0.00000000000000E+00  -1.23626711869806E-18  -1.59261944893832E-15  -1.59385571605702E-15
     -1.52480217151686E-15   0.00000000000000E+00   0.00000000000000E+00   0.00000000000000E+00   0.00000000000000E+00
     -2.29808482264839E-17  -4.52529732821081E-15  -4.54827817643730E-15  -1.91430193829687E-15
}
