DF-ISE text

Info {
  version   = 1.0
  type      = xyplot
  datasets  = [
    "time"
    "Ntop OuterVoltage" "Ntop InnerVoltage" "Ntop QuasiFermiPotential" "Ntop DisplacementCurrent" "Ntop eCurrent"
    "Ntop hCurrent" "Ntop TotalCurrent" "Ntop Charge" "Ptop OuterVoltage" "Ptop InnerVoltage"
    "Ptop QuasiFermiPotential" "Ptop DisplacementCurrent" "Ptop eCurrent" "Ptop hCurrent" "Ptop TotalCurrent"
    "Ptop Charge" "Pbot OuterVoltage" "Pbot InnerVoltage" "Pbot QuasiFermiPotential" "Pbot DisplacementCurrent"
    "Pbot eCurrent" "Pbot hCurrent" "Pbot TotalCurrent" "Pbot Charge" ]
  functions = [
    Time
    OuterVoltage InnerVoltage QuasiFermiPotential DisplacementCurrent eCurrent
    hCurrent TotalCurrent Charge OuterVoltage InnerVoltage
    QuasiFermiPotential DisplacementCurrent eCurrent hCurrent TotalCurrent
    Charge OuterVoltage InnerVoltage QuasiFermiPotential DisplacementCurrent
    eCurrent hCurrent TotalCurrent Charge ]
}

Data {
      0.00000000000000E+00
      0.00000000000000E+00   0.00000000000000E+00   0.00000000000000E+00   0.00000000000000E+00  -6.78526964739483E-23
     -2.60151337948690E-17  -2.60152016475655E-17   6.32724820948915E-15   0.00000000000000E+00   0.00000000000000E+00
      0.00000000000000E+00   0.00000000000000E+00   6.78526744160708E-23   2.35277023802689E-19   2.35344876477105E-19
     -4.42040691434333E-15   0.00000000000000E+00   0.00000000000000E+00   0.00000000000000E+00   0.00000000000000E+00
      2.58098377815814E-29   2.57798567710626E-17   2.57798567710884E-17  -1.90684129514576E-15
      0.00000000000000E+00
      0.00000000000000E+00   0.00000000000000E+00   0.00000000000000E+00   0.00000000000000E+00   9.41926157322822E-23
     -2.30754701676577E-18  -2.30745282415003E-18   6.32724820959573E-15   0.00000000000000E+00   0.00000000000000E+00
      0.00000000000000E+00   0.00000000000000E+00  -9.41926208798444E-23  -6.86704762702133E-21  -6.96124024790117E-21
     -4.42040691434337E-15   0.00000000000000E+00   0.00000000000000E+00   0.00000000000000E+00   0.00000000000000E+00
     -2.58050237528708E-30   2.31441406440052E-18   2.31441406439794E-18  -1.90684129525234E-15
      1.00000000000000E-02
      8.00000000000000E-03   7.99999999999997E-03   0.00000000000000E+00   0.00000000000000E+00   6.54270867734410E-16
      2.05318364103501E-18   6.56324051375445E-16   6.36547202064234E-15   0.00000000000000E+00   0.00000000000000E+00
      0.00000000000000E+00   0.00000000000000E+00  -2.41218134242932E-19  -4.62306206008510E-16  -4.62547424142753E-16
     -4.45855599462607E-15   0.00000000000000E+00   0.00000000000000E+00   0.00000000000000E+00   0.00000000000000E+00
     -6.88866467769999E-18  -1.86887962554992E-16  -1.93776627232692E-16  -1.90691602601627E-15
      2.37355555555556E-02
      1.89884444444444E-02   1.89884444444444E-02   0.00000000000000E+00   0.00000000000000E+00   1.36611084515458E-15
      9.66419662680323E-19   1.36707726481726E-15   6.41783156505236E-15   0.00000000000000E+00   0.00000000000000E+00
      0.00000000000000E+00   0.00000000000000E+00  -4.68539325841559E-19  -9.55079838044945E-16  -9.55548377370786E-16
     -4.51081290569110E-15   0.00000000000000E+00   0.00000000000000E+00   0.00000000000000E+00   0.00000000000000E+00
     -1.33874483474948E-17  -3.98141439098981E-16  -4.11528887446476E-16  -1.90701865936124E-15
      4.28523965432099E-02
      3.42819172345679E-02   3.42819172345679E-02   0.00000000000000E+00   0.00000000000000E+00   2.10855515046043E-15
     -6.16734428504728E-19   2.10793841603193E-15   6.49043324690894E-15   0.00000000000000E+00   0.00000000000000E+00
      0.00000000000000E+00   0.00000000000000E+00  -6.60022374044632E-19  -1.45483136521748E-15  -1.45549138759153E-15
     -4.58327176668489E-15   0.00000000000000E+00   0.00000000000000E+00   0.00000000000000E+00   0.00000000000000E+00
     -1.86652061823634E-17  -6.33781822258041E-16  -6.52447028440404E-16  -1.90716148022404E-15
      6.94587910111385E-02
      5.55670328089108E-02   5.55670328089109E-02   0.00000000000000E+00   0.00000000000000E+00   2.85525035629343E-15
      9.46615749859984E-20   2.85534501786842E-15   6.59096519526799E-15   0.00000000000000E+00   0.00000000000000E+00
      0.00000000000000E+00   0.00000000000000E+00  -7.91512607079902E-19  -1.94142449798647E-15  -1.94221601059355E-15
     -4.68360497355091E-15   0.00000000000000E+00   0.00000000000000E+00   0.00000000000000E+00   0.00000000000000E+00
     -2.18807328313097E-17  -8.91248274443538E-16  -9.13129007274848E-16  -1.90736022171708E-15
      1.06488979578391E-01
      8.51911836627130E-02   8.51911836627130E-02   0.00000000000000E+00   0.00000000000000E+00   3.62866429629491E-15
      1.30685145877352E-19   3.62879498144079E-15   6.72992291098018E-15   0.00000000000000E+00   0.00000000000000E+00
      0.00000000000000E+00   0.00000000000000E+00  -8.60178399825567E-19  -2.43681652502310E-15  -2.43767670342293E-15
     -4.82228613098558E-15   0.00000000000000E+00   0.00000000000000E+00   0.00000000000000E+00   0.00000000000000E+00
     -2.29240333825152E-17  -1.16819424463535E-15  -1.19111827801786E-15  -1.90763677999461E-15
      1.57352000808211E-01
      1.25881600646569E-01   1.25881600646569E-01   0.00000000000000E+00   0.00000000000000E+00   4.52629775293349E-15
      5.31601961521790E-19   4.52682935489502E-15   6.91906703980487E-15   0.00000000000000E+00   0.00000000000000E+00
      0.00000000000000E+00   0.00000000000000E+00  -8.84419848143074E-19  -3.02731942499783E-15  -3.02820384484597E-15
     -5.01105044379002E-15   0.00000000000000E+00   0.00000000000000E+00   0.00000000000000E+00   0.00000000000000E+00
     -2.29802263560069E-17  -1.47564528369304E-15  -1.49862551004904E-15  -1.90801659601485E-15
      2.27215186190770E-01
      1.81772148952616E-01   1.81772148952616E-01   0.00000000000000E+00   0.00000000000000E+00   5.75895643236649E-15
      2.99203476413798E-19   5.75925563584290E-15   7.17589827299597E-15   0.00000000000000E+00   0.00000000000000E+00
      0.00000000000000E+00   0.00000000000000E+00  -8.89753543184617E-19  -3.90184352612909E-15  -3.90273327967227E-15
     -5.26736002607724E-15   0.00000000000000E+00   0.00000000000000E+00   0.00000000000000E+00   0.00000000000000E+00
     -2.29806583794723E-17  -1.83354169779116E-15  -1.85652235617064E-15  -1.90853824691873E-15
      3.23176152601792E-01
      2.58540922081434E-01   2.58540922081434E-01   0.00000000000000E+00   0.00000000000000E+00   7.73550361840370E-15
     -9.41897195322907E-19   7.73456172120838E-15   7.52371105646837E-15   0.00000000000000E+00   0.00000000000000E+00
      0.00000000000000E+00   0.00000000000000E+00  -8.90602609648772E-19  -5.44900597115721E-15  -5.44989657376686E-15
     -5.61445633897166E-15   0.00000000000000E+00   0.00000000000000E+00   0.00000000000000E+00   0.00000000000000E+00
     -2.29806777879759E-17  -2.26168446965353E-15  -2.28466514744151E-15  -1.90925471749672E-15
      4.23176152601792E-01
      3.38540922081434E-01   3.38540922081433E-01   0.00000000000000E+00   0.00000000000000E+00   1.02111248040509E-14
      9.20911749982420E-19   1.02120457158009E-14   7.88061418004874E-15   0.00000000000000E+00   0.00000000000000E+00
      0.00000000000000E+00   0.00000000000000E+00  -8.90959803416324E-19  -7.52481240752355E-15  -7.52570336732697E-15
     -5.97061291530446E-15   0.00000000000000E+00   0.00000000000000E+00   0.00000000000000E+00   0.00000000000000E+00
     -2.29807041135380E-17  -2.66336164436041E-15  -2.68634234847394E-15  -1.91000126474425E-15
      5.23176152601792E-01
      4.18540922081434E-01   4.18540922081434E-01   0.00000000000000E+00   0.00000000000000E+00   1.23767033268044E-14
      6.33746436477461E-19   1.23773370732409E-14   8.23186275859748E-15   0.00000000000000E+00   0.00000000000000E+00
      0.00000000000000E+00   0.00000000000000E+00  -8.91279985825616E-19  -9.32252081832330E-15  -9.32341209830912E-15
     -6.32111510387045E-15   0.00000000000000E+00   0.00000000000000E+00   0.00000000000000E+00   0.00000000000000E+00
     -2.29807291050151E-17  -3.03094424582677E-15  -3.05392497493179E-15  -1.91074765472704E-15
      6.23176152601792E-01
      4.98540922081434E-01   4.98540922081434E-01   0.00000000000000E+00   0.00000000000000E+00   1.37424922792895E-14
      3.95600828218658E-19   1.37428878801177E-14   8.57680402928697E-15   0.00000000000000E+00   0.00000000000000E+00
      0.00000000000000E+00   0.00000000000000E+00  -8.91579468674862E-19  -1.03434505381368E-14  -1.03443421176055E-14
     -6.66531023092436E-15   0.00000000000000E+00   0.00000000000000E+00   0.00000000000000E+00   0.00000000000000E+00
     -2.29807540998684E-17  -3.37556500841229E-15  -3.39854576251216E-15  -1.91149379836266E-15
      7.23176152601792E-01
      5.78540922081434E-01   5.78540922081434E-01   0.00000000000000E+00   0.00000000000000E+00   1.46036833838511E-14
      1.81533711631537E-19   1.46038649175627E-14   8.91421515181303E-15   0.00000000000000E+00   0.00000000000000E+00
      0.00000000000000E+00   0.00000000000000E+00  -8.91862889389801E-19  -1.08780859890190E-14  -1.08789778519084E-14
     -7.00197553880419E-15   0.00000000000000E+00   0.00000000000000E+00   0.00000000000000E+00   0.00000000000000E+00
     -2.29807790906034E-17  -3.70190628656369E-15  -3.72488706565429E-15  -1.91223961300883E-15
      8.23176152601792E-01
      6.58540922081434E-01   6.58540922081434E-01   0.00000000000000E+00   0.00000000000000E+00   1.52256221481710E-14
      3.53597414951202E-19   1.52259757455860E-14   9.24294718303984E-15   0.00000000000000E+00   0.00000000000000E+00
      0.00000000000000E+00   0.00000000000000E+00  -8.92133146397615E-19  -1.11897453451045E-14  -1.11906374782509E-14
     -7.32996215572730E-15   0.00000000000000E+00   0.00000000000000E+00   0.00000000000000E+00   0.00000000000000E+00
     -2.29808040741549E-17  -4.01235746326091E-15  -4.03533826733507E-15  -1.91298502731250E-15
      9.23176152601792E-01
      7.38540922081434E-01   7.38540922081433E-01   0.00000000000000E+00   0.00000000000000E+00   1.57264205975986E-14
      9.80754724871956E-19   1.57274013523234E-14   9.56277553397176E-15   0.00000000000000E+00   0.00000000000000E+00
      0.00000000000000E+00   0.00000000000000E+00  -8.92391547283574E-19  -1.13953344802499E-14  -1.13962268717972E-14
     -7.64904555638283E-15   0.00000000000000E+00   0.00000000000000E+00   0.00000000000000E+00   0.00000000000000E+00
     -2.29808290480659E-17  -4.30819365147811E-15  -4.33117448052618E-15  -1.91372997758895E-15
      1.00000000000000E+00
      8.00000000000000E-01   8.00000000000000E-01   0.00000000000000E+00   0.00000000000000E+00   1.60645529031325E-14
      1.07484647890341E-18   1.60656277496114E-14   9.80244986625435E-15   0.00000000000000E+00   0.00000000000000E+00
      0.00000000000000E+00   0.00000000000000E+00  -8.92584455994283E-19  -1.15160284137382E-14  -1.15169209981942E-14
     -7.88814794623086E-15   0.00000000000000E+00   0.00000000000000E+00   0.00000000000000E+00   0.00000000000000E+00
     -2.29808482258708E-17  -4.52572590319140E-15  -4.54870675141727E-15  -1.91430192002351E-15
}
