DF-ISE text

Info {
  version   = 1.0
  type      = xyplot
  datasets  = [
    "time"
    "Ntop OuterVoltage" "Ntop InnerVoltage" "Ntop QuasiFermiPotential" "Ntop DisplacementCurrent" "Ntop eCurrent"
    "Ntop hCurrent" "Ntop TotalCurrent" "Ntop Charge" "Ptop OuterVoltage" "Ptop InnerVoltage"
    "Ptop QuasiFermiPotential" "Ptop DisplacementCurrent" "Ptop eCurrent" "Ptop hCurrent" "Ptop TotalCurrent"
    "Ptop Charge" "Pbot OuterVoltage" "Pbot InnerVoltage" "Pbot QuasiFermiPotential" "Pbot DisplacementCurrent"
    "Pbot eCurrent" "Pbot hCurrent" "Pbot TotalCurrent" "Pbot Charge" ]
  functions = [
    Time
    OuterVoltage InnerVoltage QuasiFermiPotential DisplacementCurrent eCurrent
    hCurrent TotalCurrent Charge OuterVoltage InnerVoltage
    QuasiFermiPotential DisplacementCurrent eCurrent hCurrent TotalCurrent
    Charge OuterVoltage InnerVoltage QuasiFermiPotential DisplacementCurrent
    eCurrent hCurrent TotalCurrent Charge ]
}

Data {
      0.00000000000000E+00
      0.00000000000000E+00   0.00000000000000E+00   0.00000000000000E+00   0.00000000000000E+00  -1.43392593100595E-23
     -2.57927403466645E-17  -2.57927546859239E-17   3.48213650012178E-15   0.00000000000000E+00   0.00000000000000E+00
      0.00000000000000E+00   0.00000000000000E+00   1.43393039543623E-23  -1.15694263658544E-19  -1.15679924354590E-19
     -1.57529520486937E-15   0.00000000000000E+00   0.00000000000000E+00   0.00000000000000E+00   0.00000000000000E+00
     -4.12957376022351E-29   2.59084346103197E-17   2.59084346102784E-17  -1.90684129525242E-15
      0.00000000000000E+00
      0.00000000000000E+00   0.00000000000000E+00   0.00000000000000E+00   0.00000000000000E+00   1.45202553950921E-22
      1.25769232464110E-19   1.25914435018061E-19   3.48213649720853E-15   0.00000000000000E+00   0.00000000000000E+00
      0.00000000000000E+00   0.00000000000000E+00  -1.45202562459405E-22   1.35339549296792E-20   1.33887523672198E-20
     -1.57529520195610E-15   0.00000000000000E+00   0.00000000000000E+00   0.00000000000000E+00   0.00000000000000E+00
     -7.04204870441189E-31  -1.39303187384577E-19  -1.39303187385281E-19  -1.90684129525242E-15
      1.00000000000000E-02
      8.00000000000000E-03   7.99999999999997E-03   0.00000000000000E+00   0.00000000000000E+00   6.34104115064655E-16
      8.90604497522470E-19   6.34994719562178E-16   3.49503174903503E-15   0.00000000000000E+00   0.00000000000000E+00
      0.00000000000000E+00   0.00000000000000E+00  -2.51187911140047E-19  -4.42113377988014E-16  -4.42364565899154E-16
     -1.58811572301848E-15   0.00000000000000E+00   0.00000000000000E+00   0.00000000000000E+00   0.00000000000000E+00
     -6.88866469349621E-18  -1.85741488969526E-16  -1.92630153663022E-16  -1.90691602601656E-15
      2.37355555555556E-02
      1.89884444444444E-02   1.89884444444444E-02   0.00000000000000E+00   0.00000000000000E+00   1.32423460636031E-15
      1.39033487626969E-18   1.32562494123658E-15   3.51269789461802E-15   0.00000000000000E+00   0.00000000000000E+00
      0.00000000000000E+00   0.00000000000000E+00  -4.76493951574906E-19  -9.13169537378594E-16  -9.13646031330169E-16
     -1.60567923525622E-15   0.00000000000000E+00   0.00000000000000E+00   0.00000000000000E+00   0.00000000000000E+00
     -1.33874483700315E-17  -3.98591461536381E-16  -4.11978909906413E-16  -1.90701865936180E-15
      4.28523965432099E-02
      3.42819172345679E-02   3.42819172345679E-02   0.00000000000000E+00   0.00000000000000E+00   2.04326736727498E-15
     -7.24489727787156E-19   2.04254287754719E-15   3.53719991711688E-15   0.00000000000000E+00   0.00000000000000E+00
      0.00000000000000E+00   0.00000000000000E+00  -6.71004458095794E-19  -1.38953198958908E-15  -1.39020299404718E-15
     -1.63003843689195E-15   0.00000000000000E+00   0.00000000000000E+00   0.00000000000000E+00   0.00000000000000E+00
     -1.86652062019085E-17  -6.33674677298103E-16  -6.52339883500011E-16  -1.90716148022494E-15
      6.94587910111385E-02
      5.55670328089108E-02   5.55670328089109E-02   0.00000000000000E+00   0.00000000000000E+00   2.76295581152468E-15
      9.29471916168575E-19   2.76388528344085E-15   3.57114511817170E-15   0.00000000000000E+00   0.00000000000000E+00
      0.00000000000000E+00   0.00000000000000E+00  -8.05036000007178E-19  -1.84889048351039E-15  -1.84969551951039E-15
     -1.66378489645329E-15   0.00000000000000E+00   0.00000000000000E+00   0.00000000000000E+00   0.00000000000000E+00
     -2.18807328412305E-17  -8.92309031089221E-16  -9.14189763930451E-16  -1.90736022171841E-15
      1.06488979578391E-01
      8.51911836627130E-02   8.51911836627130E-02   0.00000000000000E+00   0.00000000000000E+00   3.49918572480351E-15
     -3.21655663932908E-18   3.49596916816418E-15   3.61810877990860E-15   0.00000000000000E+00   0.00000000000000E+00
      0.00000000000000E+00   0.00000000000000E+00  -8.74828713708963E-19  -2.30369726626589E-15  -2.30457209497960E-15
     -1.71047199991207E-15   0.00000000000000E+00   0.00000000000000E+00   0.00000000000000E+00   0.00000000000000E+00
     -2.29242448482676E-17  -1.16847282833633E-15  -1.19139707318460E-15  -1.90763677999653E-15
      1.58026773133214E-01
      1.26421418506571E-01   1.26421418506572E-01   0.00000000000000E+00   0.00000000000000E+00   4.34574521457492E-15
     -1.11847782319069E-19   4.34563336679260E-15   3.68297916545331E-15   0.00000000000000E+00   0.00000000000000E+00
      0.00000000000000E+00   0.00000000000000E+00  -8.99735816512841E-19  -2.84296868446419E-15  -2.84386842028071E-15
     -1.77495753088092E-15   0.00000000000000E+00   0.00000000000000E+00   0.00000000000000E+00   0.00000000000000E+00
     -2.29802278606097E-17  -1.47878471865127E-15  -1.50176494651188E-15  -1.90802163457238E-15
      2.28816795791517E-01
      1.83053436633213E-01   1.83053436633213E-01   0.00000000000000E+00   0.00000000000000E+00   5.48429077581148E-15
     -3.05416805979864E-19   5.48398535900550E-15   3.77125483779784E-15   0.00000000000000E+00   0.00000000000000E+00
      0.00000000000000E+00   0.00000000000000E+00  -9.05115400935716E-19  -3.61942182337237E-15  -3.62032693877330E-15
     -1.86270463242497E-15   0.00000000000000E+00   0.00000000000000E+00   0.00000000000000E+00   0.00000000000000E+00
     -2.29806588405787E-17  -1.84067776139162E-15  -1.86365842023220E-15  -1.90855020537287E-15
      3.26050824691732E-01
      2.60840659753386E-01   2.60840659753386E-01   0.00000000000000E+00   0.00000000000000E+00   7.31931849143492E-15
      1.87414873060282E-20   7.31933723292222E-15   3.89114809344352E-15   0.00000000000000E+00   0.00000000000000E+00
      0.00000000000000E+00   0.00000000000000E+00  -9.06052097657520E-19  -5.02067251780322E-15  -5.02157856990088E-15
     -1.98187191373491E-15   0.00000000000000E+00   0.00000000000000E+00   0.00000000000000E+00   0.00000000000000E+00
     -2.29806785440022E-17  -2.27477798447731E-15  -2.29775866302131E-15  -1.90927617970860E-15
      4.26050824691732E-01
      3.40840659753386E-01   3.40840659753386E-01   0.00000000000000E+00   0.00000000000000E+00   9.53981172120721E-15
      1.17751781549348E-19   9.53992947298876E-15   4.01300168205621E-15   0.00000000000000E+00   0.00000000000000E+00
      0.00000000000000E+00   0.00000000000000E+00  -9.06501651713375E-19  -6.84242655809045E-15  -6.84333305974217E-15
     -2.10297895840893E-15   0.00000000000000E+00   0.00000000000000E+00   0.00000000000000E+00   0.00000000000000E+00
     -2.29807048319987E-17  -2.67361570841460E-15  -2.69659641324660E-15  -1.91002272364727E-15
      5.26050824691732E-01
      4.20840659753386E-01   4.20840659753385E-01   0.00000000000000E+00   0.00000000000000E+00   1.12860662838143E-14
     -6.62889917811769E-19   1.12854033938965E-14   4.13348565204134E-15   0.00000000000000E+00   0.00000000000000E+00
      0.00000000000000E+00   0.00000000000000E+00  -9.06911539859323E-19  -8.22159249569663E-15  -8.22249940723648E-15
     -2.22271654423360E-15   0.00000000000000E+00   0.00000000000000E+00   0.00000000000000E+00   0.00000000000000E+00
     -2.29807298235495E-17  -3.03992325683652E-15  -3.06290398666007E-15  -1.91076910780772E-15
      6.26050824691732E-01
      5.00840659753386E-01   5.00840659753386E-01   0.00000000000000E+00   0.00000000000000E+00   1.23237288349449E-14
     -8.50121684653768E-19   1.23228787132602E-14   4.25260046245824E-15   0.00000000000000E+00   0.00000000000000E+00
      0.00000000000000E+00   0.00000000000000E+00  -9.07292838987146E-19  -8.91500381357814E-15  -8.91591110641712E-15
     -2.34108521932710E-15   0.00000000000000E+00   0.00000000000000E+00   0.00000000000000E+00   0.00000000000000E+00
     -2.29807548183480E-17  -3.38398685202470E-15  -3.40696760684305E-15  -1.91151524313114E-15
      7.26050824691732E-01
      5.80840659753386E-01   5.80840659753386E-01   0.00000000000000E+00   0.00000000000000E+00   1.30223506813180E-14
      1.10765101605857E-18   1.30234583323341E-14   4.37025582366928E-15   0.00000000000000E+00   0.00000000000000E+00
      0.00000000000000E+00   0.00000000000000E+00  -9.07650307730311E-19  -9.28753811648105E-15  -9.28844576678878E-15
     -2.45799477635743E-15   0.00000000000000E+00   0.00000000000000E+00   0.00000000000000E+00   0.00000000000000E+00
     -2.29807798089172E-17  -3.71203178573639E-15  -3.73501256554531E-15  -1.91226104731184E-15
      8.26050824691732E-01
      6.60840659753386E-01   6.60840659753386E-01   0.00000000000000E+00   0.00000000000000E+00   1.35994845907348E-14
     -2.46024342215576E-19   1.35992385663926E-14   4.48627735293137E-15   0.00000000000000E+00   0.00000000000000E+00
      0.00000000000000E+00   0.00000000000000E+00  -9.07988578876084E-19  -9.55481689809824E-15  -9.55572488667711E-15
     -2.57327090354839E-15   0.00000000000000E+00   0.00000000000000E+00   0.00000000000000E+00   0.00000000000000E+00
     -2.29808047922328E-17  -4.02053287492321E-15  -4.04351367971545E-15  -1.91300644938297E-15
      9.26050824691732E-01
      7.40840659753386E-01   7.40840659753386E-01   0.00000000000000E+00   0.00000000000000E+00   1.41356176903191E-14
     -1.24161511554644E-19   1.41354935288075E-14   4.60042263283890E-15   0.00000000000000E+00   0.00000000000000E+00
      0.00000000000000E+00   0.00000000000000E+00  -9.08307186996362E-19  -9.79617824096743E-15  -9.79708654815443E-15
     -2.68667124688109E-15   0.00000000000000E+00   0.00000000000000E+00   0.00000000000000E+00   0.00000000000000E+00
     -2.29808297658503E-17  -4.31542615088725E-15  -4.33840698065310E-15  -1.91375138595781E-15
      1.00000000000000E+00
      8.00000000000000E-01   8.00000000000000E-01   0.00000000000000E+00   0.00000000000000E+00   1.45260250606371E-14
      1.11371888519782E-18   1.45271387795223E-14   4.68347238566270E-15   0.00000000000000E+00   0.00000000000000E+00
      0.00000000000000E+00   0.00000000000000E+00  -9.08531971868742E-19  -9.97742705384524E-15  -9.97833558581711E-15
     -2.76917046369535E-15   0.00000000000000E+00   0.00000000000000E+00   0.00000000000000E+00   0.00000000000000E+00
     -2.29808482259362E-17  -4.52582234547931E-15  -4.54880319370525E-15  -1.91430192196735E-15
}
