DF-ISE text

Info {
  version   = 1.0
  type      = xyplot
  datasets  = [
    "time"
    "Ntop OuterVoltage" "Ntop InnerVoltage" "Ntop QuasiFermiPotential" "Ntop DisplacementCurrent" "Ntop eCurrent"
    "Ntop hCurrent" "Ntop TotalCurrent" "Ntop Charge" "Ptop OuterVoltage" "Ptop InnerVoltage"
    "Ptop QuasiFermiPotential" "Ptop DisplacementCurrent" "Ptop eCurrent" "Ptop hCurrent" "Ptop TotalCurrent"
    "Ptop Charge" "Pbot OuterVoltage" "Pbot InnerVoltage" "Pbot QuasiFermiPotential" "Pbot DisplacementCurrent"
    "Pbot eCurrent" "Pbot hCurrent" "Pbot TotalCurrent" "Pbot Charge" ]
  functions = [
    Time
    OuterVoltage InnerVoltage QuasiFermiPotential DisplacementCurrent eCurrent
    hCurrent TotalCurrent Charge OuterVoltage InnerVoltage
    QuasiFermiPotential DisplacementCurrent eCurrent hCurrent TotalCurrent
    Charge OuterVoltage InnerVoltage QuasiFermiPotential DisplacementCurrent
    eCurrent hCurrent TotalCurrent Charge ]
}

Data {
      0.00000000000000E+00
      0.00000000000000E+00   0.00000000000000E+00   0.00000000000000E+00   0.00000000000000E+00  -1.96301688036358E-22
     -2.61158941889762E-17  -2.61160904906642E-17   2.73763740509625E-15   0.00000000000000E+00   0.00000000000000E+00
      0.00000000000000E+00   0.00000000000000E+00   1.96301680975327E-22   1.21741019153106E-19   1.21937320834081E-19
     -8.30796109803658E-16   0.00000000000000E+00   0.00000000000000E+00   0.00000000000000E+00   0.00000000000000E+00
      5.63123871376322E-30   2.59941531698245E-17   2.59941531698301E-17  -1.90684129529259E-15
      0.00000000000000E+00
      0.00000000000000E+00   0.00000000000000E+00   0.00000000000000E+00   0.00000000000000E+00  -2.43243883229856E-19
      2.24235858336308E-19  -1.90080248935488E-20   2.73763740509464E-15   0.00000000000000E+00   0.00000000000000E+00
      0.00000000000000E+00   0.00000000000000E+00   2.43243883239544E-19   7.74550499194624E-22   2.44018433738738E-19
     -8.30796109802041E-16   0.00000000000000E+00   0.00000000000000E+00   0.00000000000000E+00   0.00000000000000E+00
     -5.86591089072890E-30  -2.25010408839331E-19  -2.25010408845197E-19  -1.90684129529259E-15
      1.00000000000000E-02
      8.00000000000000E-03   7.99999999999997E-03   0.00000000000000E+00   0.00000000000000E+00   2.68610681117799E-16
      1.25622059228503E-20   2.68623243323721E-16   2.74573292858988E-15   0.00000000000000E+00   0.00000000000000E+00
      0.00000000000000E+00   0.00000000000000E+00  -6.29637661734900E-19  -7.61670723597459E-17  -7.67967100214808E-17
     -8.38816902529742E-16   0.00000000000000E+00   0.00000000000000E+00   0.00000000000000E+00   0.00000000000000E+00
     -6.88866473653920E-18  -1.84937868565702E-16  -1.91826533302241E-16  -1.90691602606014E-15
      2.37355555555556E-02
      1.89884444444444E-02   1.89884444444444E-02   0.00000000000000E+00   0.00000000000000E+00   5.79429043688820E-16
      3.24242351102940E-18   5.82671467199849E-16   2.75679096030055E-15   0.00000000000000E+00   0.00000000000000E+00
      0.00000000000000E+00   0.00000000000000E+00  -3.61521658757168E-19  -1.68305930556614E-16  -1.68667452215371E-16
     -8.49772300890316E-16   0.00000000000000E+00   0.00000000000000E+00   0.00000000000000E+00   0.00000000000000E+00
     -1.33874484304920E-17  -4.00616566553986E-16  -4.14004014984478E-16  -1.90701865941023E-15
      4.28523965432099E-02
      3.42819172345679E-02   3.42819172345679E-02   0.00000000000000E+00   0.00000000000000E+00   9.33940236355488E-16
     -1.03854551572122E-18   9.32901690839767E-16   2.77206637636707E-15   0.00000000000000E+00   0.00000000000000E+00
      0.00000000000000E+00   0.00000000000000E+00  -1.62148510578750E-18  -2.78972464212827E-16  -2.80593949318615E-16
     -8.64904896086562E-16   0.00000000000000E+00   0.00000000000000E+00   0.00000000000000E+00   0.00000000000000E+00
     -1.86652062532786E-17  -6.33642535267871E-16  -6.52307741521150E-16  -1.90716148028051E-15
      6.94587910111385E-02
      5.55670328089108E-02   5.55670328089109E-02   0.00000000000000E+00   0.00000000000000E+00   1.32246364908104E-15
      8.85419506132058E-19   1.32334906858717E-15   2.79311332124423E-15   0.00000000000000E+00   0.00000000000000E+00
      0.00000000000000E+00   0.00000000000000E+00  -1.44507571545544E-18  -4.07757094674565E-16  -4.09202170390021E-16
     -8.85753099459296E-16   0.00000000000000E+00   0.00000000000000E+00   0.00000000000000E+00   0.00000000000000E+00
     -2.18807328665684E-17  -8.92266165330583E-16  -9.14146898197151E-16  -1.90736022178493E-15
      1.06488979578391E-01
      8.51911836627130E-02   8.51911836627130E-02   0.00000000000000E+00   0.00000000000000E+00   1.73909528951761E-15
      4.83183487112055E-19   1.73957847300472E-15   2.82201679589406E-15   0.00000000000000E+00   0.00000000000000E+00
      0.00000000000000E+00   0.00000000000000E+00  -1.22519903937581E-18  -5.45959728192118E-16  -5.47184927231494E-16
     -9.14380015813278E-16   0.00000000000000E+00   0.00000000000000E+00   0.00000000000000E+00   0.00000000000000E+00
     -2.29242448516827E-17  -1.16946930092155E-15  -1.19239354577323E-15  -1.90763678008078E-15
      1.58026773133214E-01
      1.26421418506571E-01   1.26421418506572E-01   0.00000000000000E+00   0.00000000000000E+00   2.17841214922466E-15
     -5.51528305660606E-19   2.17786062091900E-15   2.86154596163905E-15   0.00000000000000E+00   0.00000000000000E+00
      0.00000000000000E+00   0.00000000000000E+00  -2.16144548976649E-18  -6.73998508118640E-16  -6.76159953608407E-16
     -9.53524326951502E-16   0.00000000000000E+00   0.00000000000000E+00   0.00000000000000E+00   0.00000000000000E+00
     -2.29802278606152E-17  -1.47872043944997E-15  -1.50170066731059E-15  -1.90802163468754E-15
      2.28816795791517E-01
      1.83053436633213E-01   1.83053436633213E-01   0.00000000000000E+00   0.00000000000000E+00   2.64214260055555E-15
      5.18552592853201E-19   2.64266115314840E-15   2.91464076522126E-15   0.00000000000000E+00   0.00000000000000E+00
      0.00000000000000E+00   0.00000000000000E+00  -1.92566448224225E-18  -7.75877002121997E-16  -7.77802666604240E-16
     -1.00609055967445E-15   0.00000000000000E+00   0.00000000000000E+00   0.00000000000000E+00   0.00000000000000E+00
     -2.29806588405843E-17  -1.84187782770357E-15  -1.86485848654416E-15  -1.90855020554681E-15
      3.26050824691732E-01
      2.60840659753386E-01   2.60840659753386E-01   0.00000000000000E+00   0.00000000000000E+00   3.17040374796083E-15
      7.03402223329101E-19   3.17110715018416E-15   2.98555797505630E-15   0.00000000000000E+00   0.00000000000000E+00
      0.00000000000000E+00   0.00000000000000E+00  -1.43978611269164E-18  -8.70805088364154E-16  -8.72244874476845E-16
     -1.07628179504542E-15   0.00000000000000E+00   0.00000000000000E+00   0.00000000000000E+00   0.00000000000000E+00
     -2.29806785440139E-17  -2.27588159716330E-15  -2.29886227570732E-15  -1.90927618001088E-15
      4.26050824691732E-01
      3.40840659753386E-01   3.40840659753386E-01   0.00000000000000E+00   0.00000000000000E+00   3.65972078447077E-15
      8.89536085065294E-20   3.65980973807928E-15   3.05633954652135E-15   0.00000000000000E+00   0.00000000000000E+00
      0.00000000000000E+00   0.00000000000000E+00  -1.87004051052716E-18  -9.60936108206714E-16  -9.62806148717241E-16
     -1.14631682233944E-15   0.00000000000000E+00   0.00000000000000E+00   0.00000000000000E+00   0.00000000000000E+00
     -2.29807048320167E-17  -2.67402288453002E-15  -2.69700358936204E-15  -1.91002272418191E-15
      5.26050824691732E-01
      4.20840659753386E-01   4.20840659753385E-01   0.00000000000000E+00   0.00000000000000E+00   4.12175278982697E-15
      1.09343921723801E-19   4.12186213374870E-15   3.12514498630966E-15   0.00000000000000E+00   0.00000000000000E+00
      0.00000000000000E+00   0.00000000000000E+00  -2.01678601354154E-18  -1.05567698964626E-15  -1.05769377565980E-15
     -1.21437587753879E-15   0.00000000000000E+00   0.00000000000000E+00   0.00000000000000E+00   0.00000000000000E+00
     -2.29807298235818E-17  -3.04118762826532E-15  -3.06416835808890E-15  -1.91076910877087E-15
      6.26050824691732E-01
      5.00840659753386E-01   5.00840659753386E-01   0.00000000000000E+00   0.00000000000000E+00   4.56812560468656E-15
     -1.10259615948725E-18   4.56702300852707E-15   3.19209077848053E-15   0.00000000000000E+00   0.00000000000000E+00
      0.00000000000000E+00   0.00000000000000E+00  -2.25810530976905E-18  -1.15745441889674E-15  -1.15971252420651E-15
     -1.28057553355757E-15   0.00000000000000E+00   0.00000000000000E+00   0.00000000000000E+00   0.00000000000000E+00
     -2.29807548184083E-17  -3.38432972950216E-15  -3.40731048432057E-15  -1.91151524492296E-15
      7.26050824691732E-01
      5.80840659753386E-01   5.80840659753386E-01   0.00000000000000E+00   0.00000000000000E+00   5.00178783217194E-15
      9.63791360680397E-19   5.00275162353262E-15   3.25721194400273E-15   0.00000000000000E+00   0.00000000000000E+00
      0.00000000000000E+00   0.00000000000000E+00  -1.69559859938790E-18  -1.26555058738898E-15  -1.26724618598837E-15
     -1.34495089320931E-15   0.00000000000000E+00   0.00000000000000E+00   0.00000000000000E+00   0.00000000000000E+00
     -2.29807798090340E-17  -3.71252465773522E-15  -3.73550543754425E-15  -1.91226105079341E-15
      8.26050824691732E-01
      6.60840659753386E-01   6.60840659753386E-01   0.00000000000000E+00   0.00000000000000E+00   5.42311010212288E-15
     -7.09856703076851E-19   5.42240024541980E-15   3.32046971466592E-15   0.00000000000000E+00   0.00000000000000E+00
      0.00000000000000E+00   0.00000000000000E+00  -1.22404378996103E-18  -1.37742679587552E-15  -1.37865083966548E-15
     -1.40746325815884E-15   0.00000000000000E+00   0.00000000000000E+00   0.00000000000000E+00   0.00000000000000E+00
     -2.29808047924716E-17  -4.02076860096185E-15  -4.04374940575432E-15  -1.91300645650708E-15
      9.26050824691732E-01
      7.40840659753386E-01   7.40840659753386E-01   0.00000000000000E+00   0.00000000000000E+00   5.83199888232719E-15
      9.96837335028393E-20   5.83209856606069E-15   3.38176593407492E-15   0.00000000000000E+00   0.00000000000000E+00
      0.00000000000000E+00   0.00000000000000E+00  -3.04411414308596E-18  -1.48960813453985E-15  -1.49265224868294E-15
     -1.46801453272407E-15   0.00000000000000E+00   0.00000000000000E+00   0.00000000000000E+00   0.00000000000000E+00
     -2.29808297663667E-17  -4.31646548761138E-15  -4.33944631737775E-15  -1.91375140135085E-15
      1.00000000000000E+00
      8.00000000000000E-01   8.00000000000000E-01   0.00000000000000E+00   0.00000000000000E+00   6.12059368022195E-15
     -6.25062140204599E-20   6.12053117400793E-15   3.42576320713995E-15   0.00000000000000E+00   0.00000000000000E+00
      0.00000000000000E+00   0.00000000000000E+00  -1.08641135743013E-18  -1.57094157256451E-15  -1.57202798392194E-15
     -1.51146125711123E-15   0.00000000000000E+00   0.00000000000000E+00   0.00000000000000E+00   0.00000000000000E+00
     -2.29808482268772E-17  -4.52552234185909E-15  -4.54850319008597E-15  -1.91430195002873E-15
}
