DF-ISE text

Info {
  version   = 1.0
  type      = xyplot
  datasets  = [
    "time"
    "Ntop OuterVoltage" "Ntop InnerVoltage" "Ntop QuasiFermiPotential" "Ntop DisplacementCurrent" "Ntop eCurrent"
    "Ntop hCurrent" "Ntop TotalCurrent" "Ntop Charge" "Ptop OuterVoltage" "Ptop InnerVoltage"
    "Ptop QuasiFermiPotential" "Ptop DisplacementCurrent" "Ptop eCurrent" "Ptop hCurrent" "Ptop TotalCurrent"
    "Ptop Charge" "Pbot OuterVoltage" "Pbot InnerVoltage" "Pbot QuasiFermiPotential" "Pbot DisplacementCurrent"
    "Pbot eCurrent" "Pbot hCurrent" "Pbot TotalCurrent" "Pbot Charge" ]
  functions = [
    Time
    OuterVoltage InnerVoltage QuasiFermiPotential DisplacementCurrent eCurrent
    hCurrent TotalCurrent Charge OuterVoltage InnerVoltage
    QuasiFermiPotential DisplacementCurrent eCurrent hCurrent TotalCurrent
    Charge OuterVoltage InnerVoltage QuasiFermiPotential DisplacementCurrent
    eCurrent hCurrent TotalCurrent Charge ]
}

Data {
      0.00000000000000E+00
      0.00000000000000E+00   0.00000000000000E+00   0.00000000000000E+00   0.00000000000000E+00   5.47245736879224E-20
     -2.62260372893530E-17  -2.61713127156651E-17   2.76043908183869E-15   0.00000000000000E+00   0.00000000000000E+00
      0.00000000000000E+00   0.00000000000000E+00  -5.47245737306824E-20   3.92607228477591E-19   3.37882654746909E-19
     -8.53597786585168E-16   0.00000000000000E+00   0.00000000000000E+00   0.00000000000000E+00   0.00000000000000E+00
      2.58094047177879E-29   2.58334300608923E-17   2.58334300609181E-17  -1.90684129525353E-15
      0.00000000000000E+00
      0.00000000000000E+00   0.00000000000000E+00   0.00000000000000E+00   0.00000000000000E+00  -1.07080141536937E-19
      6.45317565389679E-19   5.38237423852743E-19   2.76043908183726E-15   0.00000000000000E+00   0.00000000000000E+00
      0.00000000000000E+00   0.00000000000000E+00   1.07080141536517E-19  -2.43160853782647E-21   1.04648532998690E-19
     -8.53597786583731E-16   0.00000000000000E+00   0.00000000000000E+00   0.00000000000000E+00   0.00000000000000E+00
     -8.44667842534971E-30  -6.42885956842985E-19  -6.42885956851432E-19  -1.90684129525353E-15
      1.00000000000000E-02
      8.00000000000000E-03   7.99999999999997E-03   0.00000000000000E+00   0.00000000000000E+00   7.74001081360026E-16
     -1.40924149854872E-18   7.72591839861477E-16   2.76842576397006E-15   0.00000000000000E+00   0.00000000000000E+00
      0.00000000000000E+00   0.00000000000000E+00   4.85655863438365E-19  -5.82686751536569E-16  -5.82201095673131E-16
     -8.61509737951708E-16   0.00000000000000E+00   0.00000000000000E+00   0.00000000000000E+00   0.00000000000000E+00
     -6.88866473379109E-18  -1.83502079454554E-16  -1.90390744188345E-16  -1.90691602601835E-15
      2.37355555555556E-02
      1.89884444444444E-02   1.89884444444444E-02   0.00000000000000E+00   0.00000000000000E+00   1.68418635293959E-15
      2.65847720735762E-18   1.68684483014695E-15   2.77933513554498E-15   0.00000000000000E+00   0.00000000000000E+00
      0.00000000000000E+00   0.00000000000000E+00  -2.42686710904641E-18  -1.27102470656134E-15  -1.27345157367039E-15
     -8.72316476180506E-16   0.00000000000000E+00   0.00000000000000E+00   0.00000000000000E+00   0.00000000000000E+00
     -1.33874484266871E-17  -4.00005808049882E-16  -4.13393256476569E-16  -1.90701865936447E-15
      4.28523965432099E-02
      3.42819172345679E-02   3.42819172345679E-02   0.00000000000000E+00   0.00000000000000E+00   2.70226208919401E-15
     -5.60099742992040E-19   2.70170198945101E-15   2.79440521984226E-15   0.00000000000000E+00   0.00000000000000E+00
      0.00000000000000E+00   0.00000000000000E+00  -1.73491173646293E-18  -2.04722004072702E-15  -2.04895495246348E-15
     -8.87243739613505E-16   0.00000000000000E+00   0.00000000000000E+00   0.00000000000000E+00   0.00000000000000E+00
     -1.86652062501086E-17  -6.34081830737423E-16  -6.52747036987531E-16  -1.90716148022875E-15
      6.94587910111385E-02
      5.55670328089108E-02   5.55670328089109E-02   0.00000000000000E+00   0.00000000000000E+00   3.75787001412649E-15
      1.73243054539377E-18   3.75960244467189E-15   2.81516927996345E-15   0.00000000000000E+00   0.00000000000000E+00
      0.00000000000000E+00   0.00000000000000E+00  -1.90875031798180E-18  -2.84264673508627E-15  -2.84455548540425E-15
     -9.07809058239616E-16   0.00000000000000E+00   0.00000000000000E+00   0.00000000000000E+00   0.00000000000000E+00
     -2.18807328650315E-17  -8.93166226402597E-16  -9.15046959267629E-16  -1.90736022172383E-15
      1.06488979578391E-01
      8.51911836627130E-02   8.51911836627130E-02   0.00000000000000E+00   0.00000000000000E+00   4.74049272393566E-15
     -1.17811082043551E-18   4.73931461311522E-15   2.84368418684011E-15   0.00000000000000E+00   0.00000000000000E+00
      0.00000000000000E+00   0.00000000000000E+00  -1.91781040508828E-19  -3.54724360089818E-15  -3.54743538193869E-15
     -9.36047406835665E-16   0.00000000000000E+00   0.00000000000000E+00   0.00000000000000E+00   0.00000000000000E+00
     -2.29242448514719E-17  -1.16895498632508E-15  -1.19187923117655E-15  -1.90763678000445E-15
      1.58026773133214E-01
      1.26421418506571E-01   1.26421418506572E-01   0.00000000000000E+00   0.00000000000000E+00   5.58922651992710E-15
     -2.00974684248458E-19   5.58902554524286E-15   2.88268123692947E-15   0.00000000000000E+00   0.00000000000000E+00
      0.00000000000000E+00   0.00000000000000E+00  -1.11390246937708E-18  -4.08592168423301E-15  -4.08703558670239E-15
     -9.74659602344596E-16   0.00000000000000E+00   0.00000000000000E+00   0.00000000000000E+00   0.00000000000000E+00
     -2.29802278606119E-17  -1.47900973067983E-15  -1.50198995854044E-15  -1.90802163458487E-15
      2.28816795791517E-01
      1.83053436633213E-01   1.83053436633213E-01   0.00000000000000E+00   0.00000000000000E+00   6.37984442798715E-15
      6.39839261983420E-19   6.38048426724914E-15   2.93505853637451E-15   0.00000000000000E+00   0.00000000000000E+00
      0.00000000000000E+00   0.00000000000000E+00  -1.88168139339447E-18  -4.51370124651072E-15  -4.51558292790412E-15
     -1.02650833097905E-15   0.00000000000000E+00   0.00000000000000E+00   0.00000000000000E+00   0.00000000000000E+00
     -2.29806588405791E-17  -1.84192068050444E-15  -1.86490133934502E-15  -1.90855020539547E-15
      3.26050824691732E-01
      2.60840659753386E-01   2.60840659753386E-01   0.00000000000000E+00   0.00000000000000E+00   7.42626274775534E-15
     -4.89480369024781E-19   7.42577326738631E-15   3.00500955047315E-15   0.00000000000000E+00   0.00000000000000E+00
      0.00000000000000E+00   0.00000000000000E+00  -1.00551175948447E-18  -5.12719124373460E-15  -5.12819675549409E-15
     -1.09573337071383E-15   0.00000000000000E+00   0.00000000000000E+00   0.00000000000000E+00   0.00000000000000E+00
     -2.29806785440052E-17  -2.27459583334822E-15  -2.29757651189223E-15  -1.90927617975932E-15
      4.26050824691732E-01
      3.40840659753386E-01   3.40840659753386E-01   0.00000000000000E+00   0.00000000000000E+00   8.82345508411719E-15
      9.48618821008422E-19   8.82440370293820E-15   3.07481649391692E-15   0.00000000000000E+00   0.00000000000000E+00
      0.00000000000000E+00   0.00000000000000E+00  -2.09919014924002E-18  -6.12455088279185E-15  -6.12665007294109E-15
     -1.16479377015238E-15   0.00000000000000E+00   0.00000000000000E+00   0.00000000000000E+00   0.00000000000000E+00
     -2.29807048320026E-17  -2.67477292516513E-15  -2.69775362999713E-15  -1.91002272376454E-15
      5.26050824691732E-01
      4.20840659753386E-01   4.20840659753385E-01   0.00000000000000E+00   0.00000000000000E+00   1.02940787580338E-14
      4.78838289994689E-19   1.02945575963238E-14   3.14266663894935E-15   0.00000000000000E+00   0.00000000000000E+00
      0.00000000000000E+00   0.00000000000000E+00  -1.77181438819378E-18  -7.22836026816823E-15  -7.23013208255643E-15
     -1.23189753086958E-15   0.00000000000000E+00   0.00000000000000E+00   0.00000000000000E+00   0.00000000000000E+00
     -2.29807298235586E-17  -3.04144478394383E-15  -3.06442551376739E-15  -1.91076910807977E-15
      6.26050824691732E-01
      5.00840659753386E-01   5.00840659753386E-01   0.00000000000000E+00   0.00000000000000E+00   1.14492228799605E-14
      8.21924139316335E-19   1.14500448040998E-14   3.20867962341167E-15   0.00000000000000E+00   0.00000000000000E+00
      0.00000000000000E+00   0.00000000000000E+00  -2.41492632970978E-18  -8.03853002256923E-15  -8.04094494889894E-15
     -1.29716437964876E-15   0.00000000000000E+00   0.00000000000000E+00   0.00000000000000E+00   0.00000000000000E+00
     -2.29807548183695E-17  -3.38611910038252E-15  -3.40909985520089E-15  -1.91151524376290E-15
      7.26050824691732E-01
      5.80840659753386E-01   5.80840659753386E-01   0.00000000000000E+00   0.00000000000000E+00   1.24114092589249E-14
      4.98457522587793E-19   1.24119077164475E-14   3.27289400293097E-15   0.00000000000000E+00   0.00000000000000E+00
      0.00000000000000E+00   0.00000000000000E+00  -2.37710389826477E-18  -8.67465734695186E-15  -8.67703445085012E-15
     -1.36063295414559E-15   0.00000000000000E+00   0.00000000000000E+00   0.00000000000000E+00   0.00000000000000E+00
     -2.29807798089667E-17  -3.71189248578845E-15  -3.73487326559742E-15  -1.91226104878538E-15
      8.26050824691732E-01
      6.60840659753386E-01   6.60840659753386E-01   0.00000000000000E+00   0.00000000000000E+00   1.33376506604998E-14
      6.33505184977369E-19   1.33382841656847E-14   3.33527258542776E-15   0.00000000000000E+00   0.00000000000000E+00
      0.00000000000000E+00   0.00000000000000E+00  -6.33325014375776E-19  -9.29276566400271E-15  -9.29339898901708E-15
     -1.42226613256526E-15   0.00000000000000E+00   0.00000000000000E+00   0.00000000000000E+00   0.00000000000000E+00
     -2.29808047923497E-17  -4.02190437187529E-15  -4.04488517666764E-15  -1.91300645286251E-15
      9.26050824691732E-01
      7.40840659753386E-01   7.40840659753386E-01   0.00000000000000E+00   0.00000000000000E+00   1.42740248141273E-14
      7.02308172544533E-19   1.42747271222998E-14   3.39571714916925E-15   0.00000000000000E+00   0.00000000000000E+00
      0.00000000000000E+00   0.00000000000000E+00  -1.05199542145573E-18  -9.93387521963301E-15  -9.93492721505446E-15
     -1.48196575482112E-15   0.00000000000000E+00   0.00000000000000E+00   0.00000000000000E+00   0.00000000000000E+00
     -2.29808297661318E-17  -4.31681907747920E-15  -4.33979990724533E-15  -1.91375139434811E-15
      1.00000000000000E+00
      8.00000000000000E-01   8.00000000000000E-01   0.00000000000000E+00   0.00000000000000E+00   1.49662759561799E-14
     -2.27597457044208E-19   1.49660483587228E-14   3.43910410980530E-15   0.00000000000000E+00   0.00000000000000E+00
      0.00000000000000E+00   0.00000000000000E+00  -1.50369089373736E-18  -1.04164807748328E-14  -1.04179844657265E-14
     -1.52480217150844E-15   0.00000000000000E+00   0.00000000000000E+00   0.00000000000000E+00   0.00000000000000E+00
     -2.29808482264837E-17  -4.52508304476982E-15  -4.54806389299631E-15  -1.91430193829686E-15
}
