DF-ISE text

Info {
  version   = 1.0
  type      = xyplot
  datasets  = [
    "time"
    "Ntop OuterVoltage" "Ntop InnerVoltage" "Ntop QuasiFermiPotential" "Ntop DisplacementCurrent" "Ntop eCurrent"
    "Ntop hCurrent" "Ntop TotalCurrent" "Ntop Charge" "Ptop OuterVoltage" "Ptop InnerVoltage"
    "Ptop QuasiFermiPotential" "Ptop DisplacementCurrent" "Ptop eCurrent" "Ptop hCurrent" "Ptop TotalCurrent"
    "Ptop Charge" "Pbot OuterVoltage" "Pbot InnerVoltage" "Pbot QuasiFermiPotential" "Pbot DisplacementCurrent"
    "Pbot eCurrent" "Pbot hCurrent" "Pbot TotalCurrent" "Pbot Charge" ]
  functions = [
    Time
    OuterVoltage InnerVoltage QuasiFermiPotential DisplacementCurrent eCurrent
    hCurrent TotalCurrent Charge OuterVoltage InnerVoltage
    QuasiFermiPotential DisplacementCurrent eCurrent hCurrent TotalCurrent
    Charge OuterVoltage InnerVoltage QuasiFermiPotential DisplacementCurrent
    eCurrent hCurrent TotalCurrent Charge ]
}

Data {
      0.00000000000000E+00
      0.00000000000000E+00   0.00000000000000E+00   0.00000000000000E+00   0.00000000000000E+00  -6.78526964739129E-23
     -2.60151337948690E-17  -2.60152016475655E-17   6.32724820948915E-15   0.00000000000000E+00   0.00000000000000E+00
      0.00000000000000E+00   0.00000000000000E+00   6.78526708422842E-23   2.35277023806263E-19   2.35344876477105E-19
     -4.42040691434333E-15   0.00000000000000E+00   0.00000000000000E+00   0.00000000000000E+00   0.00000000000000E+00
      2.58098377815814E-29   2.57798567710626E-17   2.57798567710884E-17  -1.90684129514576E-15
      0.00000000000000E+00
      0.00000000000000E+00   0.00000000000000E+00   0.00000000000000E+00   0.00000000000000E+00   9.41926157323180E-23
     -2.30754701676577E-18  -2.30745282415003E-18   6.32724820959573E-15   0.00000000000000E+00   0.00000000000000E+00
      0.00000000000000E+00   0.00000000000000E+00  -9.41926087070762E-23  -6.86704763919410E-21  -6.96124024790117E-21
     -4.42040691434337E-15   0.00000000000000E+00   0.00000000000000E+00   0.00000000000000E+00   0.00000000000000E+00
     -2.58050237528708E-30   2.31441406440052E-18   2.31441406439794E-18  -1.90684129525234E-15
      1.00000000000000E-02
      8.00000000000000E-03   7.99999999999997E-03   0.00000000000000E+00   0.00000000000000E+00   2.20959906384740E-16
      2.02130175957725E-18   2.22981208144318E-16   6.36547202064601E-15   0.00000000000000E+00   0.00000000000000E+00
      0.00000000000000E+00   0.00000000000000E+00  -5.05628376863652E-19  -2.87310864661075E-17  -2.92367148429711E-17
     -4.45855599462976E-15   0.00000000000000E+00   0.00000000000000E+00   0.00000000000000E+00   0.00000000000000E+00
     -6.88866467797972E-18  -1.86855828623367E-16  -1.93744493301347E-16  -1.90691602601627E-15
      2.37355555555556E-02
      1.89884444444444E-02   1.89884444444444E-02   0.00000000000000E+00   0.00000000000000E+00   4.72524421470371E-16
      1.67760281800658E-18   4.74202024288378E-16   6.41783156505990E-15   0.00000000000000E+00   0.00000000000000E+00
      0.00000000000000E+00   0.00000000000000E+00  -9.84820922410235E-19  -6.09811475215428E-17  -6.19659684439530E-17
     -4.51081290569866E-15   0.00000000000000E+00   0.00000000000000E+00   0.00000000000000E+00   0.00000000000000E+00
     -1.33874483478585E-17  -3.98848607496567E-16  -4.12236055844425E-16  -1.90701865936125E-15
      4.28523965432099E-02
      3.42819172345679E-02   3.42819172345679E-02   0.00000000000000E+00   0.00000000000000E+00   7.50484709312375E-16
     -9.31773066743154E-19   7.49552936245631E-16   6.49043324692036E-15   0.00000000000000E+00   0.00000000000000E+00
      0.00000000000000E+00   0.00000000000000E+00  -1.38763377237616E-18  -9.60290013812062E-17  -9.74166351535824E-17
     -4.58327176669633E-15   0.00000000000000E+00   0.00000000000000E+00   0.00000000000000E+00   0.00000000000000E+00
     -1.86652061826305E-17  -6.33471094909418E-16  -6.52136301092049E-16  -1.90716148022405E-15
      6.94587910111385E-02
      5.55670328089108E-02   5.55670328089109E-02   0.00000000000000E+00   0.00000000000000E+00   1.04768350143138E-15
      4.12982102475988E-19   1.04809648353385E-15   6.59096519528334E-15   0.00000000000000E+00   0.00000000000000E+00
      0.00000000000000E+00   0.00000000000000E+00  -1.66461692106750E-18  -1.32981427697453E-16  -1.34646044618520E-16
     -4.68360497356626E-15   0.00000000000000E+00   0.00000000000000E+00   0.00000000000000E+00   0.00000000000000E+00
     -2.18807328314237E-17  -8.91569706083910E-16  -9.13450438915333E-16  -1.90736022171709E-15
      1.06488979578391E-01
      8.51911836627130E-02   8.51911836627130E-02   0.00000000000000E+00   0.00000000000000E+00   1.36594019870892E-15
      2.06265053332287E-19   1.36614646376225E-15   6.72992291099911E-15   0.00000000000000E+00   0.00000000000000E+00
      0.00000000000000E+00   0.00000000000000E+00  -1.81007452664690E-18  -1.73143118006352E-16  -1.74953192532998E-16
     -4.82228613100449E-15   0.00000000000000E+00   0.00000000000000E+00   0.00000000000000E+00   0.00000000000000E+00
     -2.29240333825279E-17  -1.16826923784673E-15  -1.19119327122925E-15  -1.90763677999463E-15
      1.57352000808211E-01
      1.25881600646569E-01   1.25881600646569E-01   0.00000000000000E+00   0.00000000000000E+00   1.71884822593779E-15
      9.15562013291864E-21   1.71885738155793E-15   6.91906703982823E-15   0.00000000000000E+00   0.00000000000000E+00
      0.00000000000000E+00   0.00000000000000E+00  -1.86236411517001E-18  -2.18905259728667E-16  -2.20767623843837E-16
     -5.01105044381335E-15   0.00000000000000E+00   0.00000000000000E+00   0.00000000000000E+00   0.00000000000000E+00
     -2.29802263560071E-17  -1.47510953135808E-15  -1.49808975771409E-15  -1.90801659601486E-15
      2.27215186190770E-01
      1.81772148952616E-01   1.81772148952616E-01   0.00000000000000E+00   0.00000000000000E+00   2.13441441393466E-15
      2.37797774507431E-20   2.13443819371211E-15   7.17589827302595E-15   0.00000000000000E+00   0.00000000000000E+00
      0.00000000000000E+00   0.00000000000000E+00  -1.87401328913930E-18  -2.76320417669333E-16  -2.78194430958472E-16
     -5.26736002610720E-15   0.00000000000000E+00   0.00000000000000E+00   0.00000000000000E+00   0.00000000000000E+00
     -2.29806583794723E-17  -1.83326310437417E-15  -1.85624376275364E-15  -1.90853824691875E-15
      3.23176152601792E-01
      2.58540922081434E-01   2.58540922081434E-01   0.00000000000000E+00   0.00000000000000E+00   2.64131149836086E-15
     -5.57965301446029E-19   2.64075353305941E-15   7.52371105651027E-15   0.00000000000000E+00   0.00000000000000E+00
      0.00000000000000E+00   0.00000000000000E+00  -1.87550253023661E-18  -3.53827138231849E-16  -3.55702640762085E-16
     -5.61445633901352E-15   0.00000000000000E+00   0.00000000000000E+00   0.00000000000000E+00   0.00000000000000E+00
     -2.29806777879755E-17  -2.26207021450936E-15  -2.28505089229733E-15  -1.90925471749675E-15
      4.23176152601792E-01
      3.38540922081434E-01   3.38540922081433E-01   0.00000000000000E+00   0.00000000000000E+00   3.12339268919038E-15
     -4.48479486815528E-19   3.12294420970356E-15   7.88061418010661E-15   0.00000000000000E+00   0.00000000000000E+00
      0.00000000000000E+00   0.00000000000000E+00  -1.87580179080178E-18  -4.36076129990460E-16  -4.37951931781262E-16
     -5.97061291536234E-15   0.00000000000000E+00   0.00000000000000E+00   0.00000000000000E+00   0.00000000000000E+00
     -2.29807041135380E-17  -2.66201157380876E-15  -2.68499227792230E-15  -1.91000126474427E-15
      5.23176152601792E-01
      4.18540922081434E-01   4.18540922081434E-01   0.00000000000000E+00   0.00000000000000E+00   3.56691588461106E-15
      3.17818636981345E-19   3.56723370324805E-15   8.23186275866919E-15   0.00000000000000E+00   0.00000000000000E+00
      0.00000000000000E+00   0.00000000000000E+00  -1.87604524018573E-18  -5.11743412044419E-16  -5.13619457284605E-16
     -6.32111510394219E-15   0.00000000000000E+00   0.00000000000000E+00   0.00000000000000E+00   0.00000000000000E+00
     -2.29807291050151E-17  -3.03063351685843E-15  -3.05361424596344E-15  -1.91074765472707E-15
      6.23176152601792E-01
      4.98540922081434E-01   4.98540922081434E-01   0.00000000000000E+00   0.00000000000000E+00   3.97543087260333E-15
      7.55691474767208E-19   3.97618656407809E-15   8.57680402936539E-15   0.00000000000000E+00   0.00000000000000E+00
      0.00000000000000E+00   0.00000000000000E+00  -1.87627551110556E-18  -5.75400230275546E-16  -5.77276505786651E-16
     -6.66531023100275E-15   0.00000000000000E+00   0.00000000000000E+00   0.00000000000000E+00   0.00000000000000E+00
     -2.29807540998684E-17  -3.37592930419158E-15  -3.39891005829145E-15  -1.91149379836269E-15
      7.23176152601792E-01
      5.78540922081434E-01   5.78540922081434E-01   0.00000000000000E+00   0.00000000000000E+00   4.35824251823055E-15
      7.46724384184842E-20   4.35831719066897E-15   8.91421515189396E-15   0.00000000000000E+00   0.00000000000000E+00
      0.00000000000000E+00   0.00000000000000E+00  -1.87649269494441E-18  -6.31650061649873E-16  -6.33526554344817E-16
     -7.00197553888507E-15   0.00000000000000E+00   0.00000000000000E+00   0.00000000000000E+00   0.00000000000000E+00
     -2.29807790906033E-17  -3.70180985723355E-15  -3.72479063632415E-15  -1.91223961300888E-15
      8.23176152601792E-01
      6.58540922081434E-01   6.58540922081434E-01   0.00000000000000E+00   0.00000000000000E+00   4.72173357270956E-15
      6.94099203271560E-20   4.72180298262989E-15   9.24294718312147E-15   0.00000000000000E+00   0.00000000000000E+00
      0.00000000000000E+00   0.00000000000000E+00  -1.87669884684708E-18  -6.84877315776436E-16  -6.86754014623283E-16
     -7.32996215580890E-15   0.00000000000000E+00   0.00000000000000E+00   0.00000000000000E+00   0.00000000000000E+00
     -2.29808040741546E-17  -4.01206816393244E-15  -4.03504896800660E-15  -1.91298502731256E-15
      9.23176152601792E-01
      7.38540922081434E-01   7.38540922081433E-01   0.00000000000000E+00   0.00000000000000E+00   5.06996922128891E-15
      1.37803050926746E-18   5.07134725179818E-15   9.56277553405373E-15   0.00000000000000E+00   0.00000000000000E+00
      0.00000000000000E+00   0.00000000000000E+00  -1.87689478819390E-18  -7.37899430575674E-16  -7.39776325363868E-16
     -7.64904555646476E-15   0.00000000000000E+00   0.00000000000000E+00   0.00000000000000E+00   0.00000000000000E+00
     -2.29808290480660E-17  -4.30859009738624E-15  -4.33157092643430E-15  -1.91372997758903E-15
      1.00000000000000E+00
      8.00000000000000E-01   8.00000000000000E-01   0.00000000000000E+00   0.00000000000000E+00   5.32970549558457E-15
      8.17919811094745E-19   5.33052341539566E-15   9.80244986633664E-15   0.00000000000000E+00   0.00000000000000E+00
      0.00000000000000E+00   0.00000000000000E+00  -1.87704037379209E-18  -7.80207481955138E-16  -7.82084522328930E-16
     -7.88814794631301E-15   0.00000000000000E+00   0.00000000000000E+00   0.00000000000000E+00   0.00000000000000E+00
     -2.29808482258711E-17  -4.52545804484086E-15  -4.54843889306673E-15  -1.91430192002361E-15
}
