DF-ISE text

Info {
  version   = 1.0
  type      = xyplot
  datasets  = [
    "time"
    "Ntop OuterVoltage" "Ntop InnerVoltage" "Ntop QuasiFermiPotential" "Ntop DisplacementCurrent" "Ntop eCurrent"
    "Ntop hCurrent" "Ntop TotalCurrent" "Ntop Charge" "Ptop OuterVoltage" "Ptop InnerVoltage"
    "Ptop QuasiFermiPotential" "Ptop DisplacementCurrent" "Ptop eCurrent" "Ptop hCurrent" "Ptop TotalCurrent"
    "Ptop Charge" "Pbot OuterVoltage" "Pbot InnerVoltage" "Pbot QuasiFermiPotential" "Pbot DisplacementCurrent"
    "Pbot eCurrent" "Pbot hCurrent" "Pbot TotalCurrent" "Pbot Charge" ]
  functions = [
    Time
    OuterVoltage InnerVoltage QuasiFermiPotential DisplacementCurrent eCurrent
    hCurrent TotalCurrent Charge OuterVoltage InnerVoltage
    QuasiFermiPotential DisplacementCurrent eCurrent hCurrent TotalCurrent
    Charge OuterVoltage InnerVoltage QuasiFermiPotential DisplacementCurrent
    eCurrent hCurrent TotalCurrent Charge ]
}

Data {
      0.00000000000000E+00
      0.00000000000000E+00   0.00000000000000E+00   0.00000000000000E+00   0.00000000000000E+00  -1.43392593100203E-23
     -2.57927403466645E-17  -2.57927546859239E-17   3.48213650012178E-15   0.00000000000000E+00   0.00000000000000E+00
      0.00000000000000E+00   0.00000000000000E+00   1.43393007654485E-23  -1.15694263655355E-19  -1.15679924354589E-19
     -1.57529520486937E-15   0.00000000000000E+00   0.00000000000000E+00   0.00000000000000E+00   0.00000000000000E+00
     -4.12957376022351E-29   2.59084346103197E-17   2.59084346102784E-17  -1.90684129525242E-15
      0.00000000000000E+00
      0.00000000000000E+00   0.00000000000000E+00   0.00000000000000E+00   0.00000000000000E+00   1.45202553941147E-22
      1.25769232464110E-19   1.25914435018051E-19   3.48213649720853E-15   0.00000000000000E+00   0.00000000000000E+00
      0.00000000000000E+00   0.00000000000000E+00  -1.45202548354408E-22   1.35339549155840E-20   1.33887523672296E-20
     -1.57529520195610E-15   0.00000000000000E+00   0.00000000000000E+00   0.00000000000000E+00   0.00000000000000E+00
     -7.04204870441189E-31  -1.39303187384577E-19  -1.39303187385281E-19  -1.90684129525242E-15
      1.00000000000000E-02
      8.00000000000000E-03   7.99999999999997E-03   0.00000000000000E+00   0.00000000000000E+00   2.20256391368350E-16
      1.14124448468601E-18   2.21397635853036E-16   3.49503174903603E-15   0.00000000000000E+00   0.00000000000000E+00
      0.00000000000000E+00   0.00000000000000E+00  -5.14325944284900E-19  -2.79960021866927E-17  -2.85103281309776E-17
     -1.58811572301947E-15   0.00000000000000E+00   0.00000000000000E+00   0.00000000000000E+00   0.00000000000000E+00
     -6.88866469373899E-18  -1.85998643028319E-16  -1.92887307722058E-16  -1.90691602601656E-15
      2.37355555555556E-02
      1.89884444444444E-02   1.89884444444444E-02   0.00000000000000E+00   0.00000000000000E+00   4.71035860546828E-16
      1.11974138031511E-18   4.72155601927143E-16   3.51269789462008E-15   0.00000000000000E+00   0.00000000000000E+00
      0.00000000000000E+00   0.00000000000000E+00  -9.90714565250451E-19  -5.94645627735669E-17  -6.04552773388174E-17
     -1.60567923525827E-15   0.00000000000000E+00   0.00000000000000E+00   0.00000000000000E+00   0.00000000000000E+00
     -1.33874483703352E-17  -3.98312876217991E-16  -4.11700324588326E-16  -1.90701865936181E-15
      4.28523965432099E-02
      3.42819172345679E-02   3.42819172345679E-02   0.00000000000000E+00   0.00000000000000E+00   7.48155618751883E-16
     -1.45386271479208E-18   7.46701756037091E-16   3.53719991712000E-15   0.00000000000000E+00   0.00000000000000E+00
      0.00000000000000E+00   0.00000000000000E+00  -1.39529668178346E-18  -9.37058960012184E-17  -9.51011926830019E-17
     -1.63003843689506E-15   0.00000000000000E+00   0.00000000000000E+00   0.00000000000000E+00   0.00000000000000E+00
     -1.86652062021323E-17  -6.32935357151957E-16  -6.51600563354089E-16  -1.90716148022494E-15
      6.94587910111385E-02
      5.55670328089108E-02   5.55670328089109E-02   0.00000000000000E+00   0.00000000000000E+00   1.04444376316354E-15
      5.28672731291588E-19   1.04497243589483E-15   3.57114511817583E-15   0.00000000000000E+00   0.00000000000000E+00
      0.00000000000000E+00   0.00000000000000E+00  -1.67404194103350E-18  -1.29451512359881E-16  -1.31125554300915E-16
     -1.66378489645741E-15   0.00000000000000E+00   0.00000000000000E+00   0.00000000000000E+00   0.00000000000000E+00
     -2.18807328413252E-17  -8.91966148752594E-16  -9.13846881593920E-16  -1.90736022171842E-15
      1.06488979578391E-01
      8.51911836627130E-02   8.51911836627130E-02   0.00000000000000E+00   0.00000000000000E+00   1.36162661517488E-15
     -3.28953902225519E-18   1.35833707615263E-15   3.61810877991373E-15   0.00000000000000E+00   0.00000000000000E+00
      0.00000000000000E+00   0.00000000000000E+00  -1.82007751899710E-18  -1.65152080437029E-16  -1.66972157956026E-16
     -1.71047199991718E-15   0.00000000000000E+00   0.00000000000000E+00   0.00000000000000E+00   0.00000000000000E+00
     -2.29242448482781E-17  -1.16844067334833E-15  -1.19136491819660E-15  -1.90763677999655E-15
      1.58026773133214E-01
      1.26421418506571E-01   1.26421418506572E-01   0.00000000000000E+00   0.00000000000000E+00   1.71737726876119E-15
     -1.35744976181804E-19   1.71724152378501E-15   3.68297916545961E-15   0.00000000000000E+00   0.00000000000000E+00
      0.00000000000000E+00   0.00000000000000E+00  -1.87290390333577E-18  -2.13635818639471E-16  -2.15508722542807E-16
     -1.77495753088720E-15   0.00000000000000E+00   0.00000000000000E+00   0.00000000000000E+00   0.00000000000000E+00
     -2.29802278606097E-17  -1.47875257338160E-15  -1.50173280124221E-15  -1.90802163457240E-15
      2.28816795791517E-01
      1.83053436633213E-01   1.83053436633213E-01   0.00000000000000E+00   0.00000000000000E+00   2.13542987345434E-15
     -6.90626380590404E-19   2.13473924707375E-15   3.77125483780589E-15   0.00000000000000E+00   0.00000000000000E+00
      0.00000000000000E+00   0.00000000000000E+00  -1.88440518484559E-18  -2.69625014454229E-16  -2.71509419639074E-16
     -1.86270463243300E-15   0.00000000000000E+00   0.00000000000000E+00   0.00000000000000E+00   0.00000000000000E+00
     -2.29806588405784E-17  -1.84024916859410E-15  -1.86322982743468E-15  -1.90855020537289E-15
      3.26050824691732E-01
      2.60840659753386E-01   2.60840659753386E-01   0.00000000000000E+00   0.00000000000000E+00   2.64472606885247E-15
     -1.82168534812780E-19   2.64454390031765E-15   3.89114809345483E-15   0.00000000000000E+00   0.00000000000000E+00
      0.00000000000000E+00   0.00000000000000E+00  -1.88583539916186E-18  -3.45177998553616E-16  -3.47063833952778E-16
     -1.98187191374621E-15   0.00000000000000E+00   0.00000000000000E+00   0.00000000000000E+00   0.00000000000000E+00
     -2.29806785440022E-17  -2.27449938782087E-15  -2.29748006636487E-15  -1.90927617970862E-15
      4.26050824691732E-01
      3.40840659753386E-01   3.40840659753386E-01   0.00000000000000E+00   0.00000000000000E+00   3.12155167791249E-15
      2.87207945182229E-19   3.12183888585767E-15   4.01300168207188E-15   0.00000000000000E+00   0.00000000000000E+00
      0.00000000000000E+00   0.00000000000000E+00  -1.88612559560425E-18  -4.23238470228514E-16  -4.25124595824119E-16
     -2.10297895842458E-15   0.00000000000000E+00   0.00000000000000E+00   0.00000000000000E+00   0.00000000000000E+00
     -2.29807048319986E-17  -2.67373358520155E-15  -2.69671429003355E-15  -1.91002272364729E-15
      5.26050824691732E-01
      4.20840659753386E-01   4.20840659753385E-01   0.00000000000000E+00   0.00000000000000E+00   3.55803292396214E-15
     -4.60617806801241E-19   3.55757230615534E-15   4.13348565206033E-15   0.00000000000000E+00   0.00000000000000E+00
      0.00000000000000E+00   0.00000000000000E+00  -1.88636524157440E-18  -4.92599791786559E-16  -4.94486157028133E-16
     -2.22271654425257E-15   0.00000000000000E+00   0.00000000000000E+00   0.00000000000000E+00   0.00000000000000E+00
     -2.29807298235497E-17  -3.04010541930366E-15  -3.06308614912721E-15  -1.91076910780774E-15
      6.26050824691732E-01
      5.00840659753386E-01   5.00840659753386E-01   0.00000000000000E+00   0.00000000000000E+00   3.96082172786525E-15
     -7.66472423838865E-19   3.96005525544141E-15   4.25260046247886E-15   0.00000000000000E+00   0.00000000000000E+00
      0.00000000000000E+00   0.00000000000000E+00  -1.88658810248553E-18  -5.51083195046978E-16  -5.52969783149463E-16
     -2.34108521934768E-15   0.00000000000000E+00   0.00000000000000E+00   0.00000000000000E+00   0.00000000000000E+00
     -2.29807548183481E-17  -3.38410471747360E-15  -3.40708547229195E-15  -1.91151524313117E-15
      7.26050824691732E-01
      5.80840659753386E-01   5.80840659753386E-01   0.00000000000000E+00   0.00000000000000E+00   4.33994353233361E-15
      1.19801555361188E-18   4.34114154788722E-15   4.37025582369071E-15   0.00000000000000E+00   0.00000000000000E+00
      0.00000000000000E+00   0.00000000000000E+00  -1.88679582778933E-18  -6.04145760423428E-16  -6.06032556251217E-16
     -2.45799477637883E-15   0.00000000000000E+00   0.00000000000000E+00   0.00000000000000E+00   0.00000000000000E+00
     -2.29807798089174E-17  -3.71212821182709E-15  -3.73510899163601E-15  -1.91226104731187E-15
      8.26050824691732E-01
      6.60840659753386E-01   6.60840659753386E-01   0.00000000000000E+00   0.00000000000000E+00   4.70116498284942E-15
     -4.12479164104780E-19   4.70075250368532E-15   4.48627735295335E-15   0.00000000000000E+00   0.00000000000000E+00
      0.00000000000000E+00   0.00000000000000E+00  -1.88699171138578E-18  -6.55555413027449E-16  -6.57442404738835E-16
     -2.57327090357033E-15   0.00000000000000E+00   0.00000000000000E+00   0.00000000000000E+00   0.00000000000000E+00
     -2.29808047922326E-17  -4.02032929415425E-15  -4.04331009894648E-15  -1.91300644938300E-15
      9.26050824691732E-01
      7.40840659753386E-01   7.40840659753386E-01   0.00000000000000E+00   0.00000000000000E+00   5.04797621632612E-15
     -2.37500159235180E-19   5.04773871616688E-15   4.60042263286133E-15   0.00000000000000E+00   0.00000000000000E+00
      0.00000000000000E+00   0.00000000000000E+00  -1.88717513282765E-18  -7.07530280560188E-16  -7.09417455693016E-16
     -2.68667124690349E-15   0.00000000000000E+00   0.00000000000000E+00   0.00000000000000E+00   0.00000000000000E+00
     -2.29808297658507E-17  -4.31534043070803E-15  -4.33832126047388E-15  -1.91375138595785E-15
      1.00000000000000E+00
      8.00000000000000E-01   8.00000000000000E-01   0.00000000000000E+00   0.00000000000000E+00   5.29728753021068E-15
      1.08338112078117E-18   5.29837091133146E-15   4.68347238568548E-15   0.00000000000000E+00   0.00000000000000E+00
      0.00000000000000E+00   0.00000000000000E+00  -1.88730404139219E-18  -7.47712536178385E-16  -7.49599840219778E-16
     -2.76917046371808E-15   0.00000000000000E+00   0.00000000000000E+00   0.00000000000000E+00   0.00000000000000E+00
     -2.29808482259362E-17  -4.52579022288574E-15  -4.54877107111167E-15  -1.91430192196740E-15
}
