DF-ISE text

Info {
  version   = 1.0
  type      = xyplot
  datasets  = [
    "time"
    "Ntop OuterVoltage" "Ntop InnerVoltage" "Ntop QuasiFermiPotential" "Ntop DisplacementCurrent" "Ntop eCurrent"
    "Ntop hCurrent" "Ntop TotalCurrent" "Ntop Charge" "Ptop OuterVoltage" "Ptop InnerVoltage"
    "Ptop QuasiFermiPotential" "Ptop DisplacementCurrent" "Ptop eCurrent" "Ptop hCurrent" "Ptop TotalCurrent"
    "Ptop Charge" "Pbot OuterVoltage" "Pbot InnerVoltage" "Pbot QuasiFermiPotential" "Pbot DisplacementCurrent"
    "Pbot eCurrent" "Pbot hCurrent" "Pbot TotalCurrent" "Pbot Charge" ]
  functions = [
    Time
    OuterVoltage InnerVoltage QuasiFermiPotential DisplacementCurrent eCurrent
    hCurrent TotalCurrent Charge OuterVoltage InnerVoltage
    QuasiFermiPotential DisplacementCurrent eCurrent hCurrent TotalCurrent
    Charge OuterVoltage InnerVoltage QuasiFermiPotential DisplacementCurrent
    eCurrent hCurrent TotalCurrent Charge ]
}

Data {
      0.00000000000000E+00
      0.00000000000000E+00   0.00000000000000E+00   0.00000000000000E+00   0.00000000000000E+00   5.47245736879224E-20
     -2.62260372893530E-17  -2.61713127156651E-17   2.76043908183869E-15   0.00000000000000E+00   0.00000000000000E+00
      0.00000000000000E+00   0.00000000000000E+00  -5.47245737138633E-20   3.92607228460772E-19   3.37882654746909E-19
     -8.53597786585168E-16   0.00000000000000E+00   0.00000000000000E+00   0.00000000000000E+00   0.00000000000000E+00
      2.58094047177879E-29   2.58334300608923E-17   2.58334300609181E-17  -1.90684129525353E-15
      0.00000000000000E+00
      0.00000000000000E+00   0.00000000000000E+00   0.00000000000000E+00   0.00000000000000E+00  -1.07080141536937E-19
      6.45317565389679E-19   5.38237423852743E-19   2.76043908183726E-15   0.00000000000000E+00   0.00000000000000E+00
      0.00000000000000E+00   0.00000000000000E+00   1.07080141549901E-19  -2.43160855121056E-21   1.04648532998690E-19
     -8.53597786583731E-16   0.00000000000000E+00   0.00000000000000E+00   0.00000000000000E+00   0.00000000000000E+00
     -8.44667842534971E-30  -6.42885956842985E-19  -6.42885956851432E-19  -1.90684129525353E-15
      1.00000000000000E-02
      8.00000000000000E-03   7.99999999999997E-03   0.00000000000000E+00   0.00000000000000E+00   2.18613910045405E-16
     -1.61794585831083E-18   2.16995964187095E-16   2.76842576397075E-15   0.00000000000000E+00   0.00000000000000E+00
      0.00000000000000E+00   0.00000000000000E+00   1.52146954283542E-19  -2.69716520136053E-17  -2.68195050593218E-17
     -8.61509737952398E-16   0.00000000000000E+00   0.00000000000000E+00   0.00000000000000E+00   0.00000000000000E+00
     -6.88866473393117E-18  -1.83287794393842E-16  -1.90176459127773E-16  -1.90691602601835E-15
      2.37355555555556E-02
      1.89884444444444E-02   1.89884444444444E-02   0.00000000000000E+00   0.00000000000000E+00   4.69081696364688E-16
      2.36978444149672E-18   4.71451480806185E-16   2.77933513554646E-15   0.00000000000000E+00   0.00000000000000E+00
      0.00000000000000E+00   0.00000000000000E+00  -2.36140505087720E-19  -5.81113831528125E-17  -5.83475236579002E-17
     -8.72316476181991E-16   0.00000000000000E+00   0.00000000000000E+00   0.00000000000000E+00   0.00000000000000E+00
     -1.33874484268702E-17  -3.99716508721414E-16  -4.13103957148284E-16  -1.90701865936448E-15
      4.28523965432099E-02
      3.42819172345679E-02   3.42819172345679E-02   0.00000000000000E+00   0.00000000000000E+00   7.47939900775141E-16
     -8.67533086690277E-19   7.47072367688450E-16   2.79440521984461E-15   0.00000000000000E+00   0.00000000000000E+00
      0.00000000000000E+00   0.00000000000000E+00  -1.66083398493203E-18  -9.29537879457023E-17  -9.46146219306344E-17
     -8.87243739615855E-16   0.00000000000000E+00   0.00000000000000E+00   0.00000000000000E+00   0.00000000000000E+00
     -1.86652062502544E-17  -6.33792539507562E-16  -6.52457745757816E-16  -1.90716148022876E-15
      6.94587910111385E-02
      5.55670328089108E-02   5.55670328089109E-02   0.00000000000000E+00   0.00000000000000E+00   1.04526028644351E-15
      2.10414680732390E-18   1.04736443325084E-15   2.81516927996666E-15   0.00000000000000E+00   0.00000000000000E+00
      0.00000000000000E+00   0.00000000000000E+00  -1.78860225107361E-18  -1.30143146312905E-16  -1.31931748563979E-16
     -9.07809058242823E-16   0.00000000000000E+00   0.00000000000000E+00   0.00000000000000E+00   0.00000000000000E+00
     -2.18807328650963E-17  -8.93551951821762E-16  -9.15432684686858E-16  -1.90736022172384E-15
      1.06488979578391E-01
      8.51911836627130E-02   8.51911836627130E-02   0.00000000000000E+00   0.00000000000000E+00   1.36068628934432E-15
     -1.05943604294292E-18   1.35962685330138E-15   2.84368418684404E-15   0.00000000000000E+00   0.00000000000000E+00
      0.00000000000000E+00   0.00000000000000E+00  -1.56014513005872E-19  -1.67484462651883E-16  -1.67640477164889E-16
     -9.36047406839580E-16   0.00000000000000E+00   0.00000000000000E+00   0.00000000000000E+00   0.00000000000000E+00
     -2.29242448514790E-17  -1.16906213128501E-15  -1.19198637613649E-15  -1.90763678000446E-15
      1.58026773133214E-01
      1.26421418506571E-01   1.26421418506572E-01   0.00000000000000E+00   0.00000000000000E+00   1.71415253182542E-15
      1.03857799457398E-20   1.71416291760536E-15   2.88268123693388E-15   0.00000000000000E+00   0.00000000000000E+00
      0.00000000000000E+00   0.00000000000000E+00  -1.37005786443755E-18  -2.10588606421442E-16  -2.11958664285880E-16
     -9.74659602348990E-16   0.00000000000000E+00   0.00000000000000E+00   0.00000000000000E+00   0.00000000000000E+00
     -2.29802278606117E-17  -1.47922402545887E-15  -1.50220425331949E-15  -1.90802163458488E-15
      2.28816795791517E-01
      1.83053436633213E-01   1.83053436633213E-01   0.00000000000000E+00   0.00000000000000E+00   2.12428173584017E-15
      5.81409360530090E-19   2.12486314520070E-15   2.93505853637925E-15   0.00000000000000E+00   0.00000000000000E+00
      0.00000000000000E+00   0.00000000000000E+00  -1.95391189822984E-18  -2.58061457528953E-16  -2.60015369427183E-16
     -1.02650833098376E-15   0.00000000000000E+00   0.00000000000000E+00   0.00000000000000E+00   0.00000000000000E+00
     -2.29806588405789E-17  -1.84186711693294E-15  -1.86484777577352E-15  -1.90855020539548E-15
      3.26050824691732E-01
      2.60840659753386E-01   2.60840659753386E-01   0.00000000000000E+00   0.00000000000000E+00   2.61953830148184E-15
      1.14578189612014E-19   2.61965287967146E-15   3.00500955047836E-15   0.00000000000000E+00   0.00000000000000E+00
      0.00000000000000E+00   0.00000000000000E+00  -2.75086597244338E-18  -3.18714744922399E-16  -3.21465610894843E-16
     -1.09573337071902E-15   0.00000000000000E+00   0.00000000000000E+00   0.00000000000000E+00   0.00000000000000E+00
     -2.29806785440053E-17  -2.27520659023261E-15  -2.29818726877661E-15  -1.90927617975933E-15
      4.26050824691732E-01
      3.40840659753386E-01   3.40840659753386E-01   0.00000000000000E+00   0.00000000000000E+00   3.08145642409869E-15
      5.49168913626513E-19   3.08200559301231E-15   3.07481649392298E-15   0.00000000000000E+00   0.00000000000000E+00
      0.00000000000000E+00   0.00000000000000E+00  -2.80304353425490E-18  -3.81834652998699E-16  -3.84637696532953E-16
     -1.16479377015843E-15   0.00000000000000E+00   0.00000000000000E+00   0.00000000000000E+00   0.00000000000000E+00
     -2.29807048320026E-17  -2.67438719164736E-15  -2.69736789647936E-15  -1.91002272376455E-15
      5.26050824691732E-01
      4.20840659753386E-01   4.20840659753385E-01   0.00000000000000E+00   0.00000000000000E+00   3.50867277361481E-15
     -7.14859535616959E-19   3.50795791407919E-15   3.14266663895635E-15   0.00000000000000E+00   0.00000000000000E+00
      0.00000000000000E+00   0.00000000000000E+00  -1.43405599236733E-18  -4.43298417110277E-16  -4.44732473102644E-16
     -1.23189753087658E-15   0.00000000000000E+00   0.00000000000000E+00   0.00000000000000E+00   0.00000000000000E+00
     -2.29807298235588E-17  -3.04024471115299E-15  -3.06322544097655E-15  -1.91076910807978E-15
      6.26050824691732E-01
      5.00840659753386E-01   5.00840659753386E-01   0.00000000000000E+00   0.00000000000000E+00   3.90886772888962E-15
      7.02542705045201E-19   3.90957027159467E-15   3.20867962341931E-15   0.00000000000000E+00   0.00000000000000E+00
      0.00000000000000E+00   0.00000000000000E+00  -1.70200230825203E-18  -4.98897001643110E-16  -5.00599003951362E-16
     -1.29716437965640E-15   0.00000000000000E+00   0.00000000000000E+00   0.00000000000000E+00   0.00000000000000E+00
     -2.29807548183693E-17  -3.38599051282494E-15  -3.40897126764330E-15  -1.91151524376291E-15
      7.26050824691732E-01
      5.80840659753386E-01   5.80840659753386E-01   0.00000000000000E+00   0.00000000000000E+00   4.28861692647447E-15
      1.04898251090292E-18   4.28966590898537E-15   3.27289400293908E-15   0.00000000000000E+00   0.00000000000000E+00
      0.00000000000000E+00   0.00000000000000E+00  -3.10062491719743E-18  -5.51145563463768E-16  -5.54246188380965E-16
     -1.36063295415369E-15   0.00000000000000E+00   0.00000000000000E+00   0.00000000000000E+00   0.00000000000000E+00
     -2.29807798089666E-17  -3.71243894079543E-15  -3.73541972060440E-15  -1.91226104878539E-15
      8.26050824691732E-01
      6.60840659753386E-01   6.60840659753386E-01   0.00000000000000E+00   0.00000000000000E+00   4.64844091108073E-15
      4.77579899822754E-19   4.64891849098055E-15   3.33527258543632E-15   0.00000000000000E+00   0.00000000000000E+00
      0.00000000000000E+00   0.00000000000000E+00  -1.18016951683166E-18  -6.03003150655492E-16  -6.04183320172324E-16
     -1.42226613257379E-15   0.00000000000000E+00   0.00000000000000E+00   0.00000000000000E+00   0.00000000000000E+00
     -2.29808047923496E-17  -4.02175436601588E-15  -4.04473517080823E-15  -1.91300645286252E-15
      9.26050824691732E-01
      7.40840659753386E-01   7.40840659753386E-01   0.00000000000000E+00   0.00000000000000E+00   4.99493477549458E-15
      7.92868314430515E-19   4.99572764380901E-15   3.39571714917823E-15   0.00000000000000E+00   0.00000000000000E+00
      0.00000000000000E+00   0.00000000000000E+00   2.80304183516181E-19  -6.56111606557894E-16  -6.55831302374378E-16
     -1.48196575483010E-15   0.00000000000000E+00   0.00000000000000E+00   0.00000000000000E+00   0.00000000000000E+00
     -2.29808297661316E-17  -4.31691551166851E-15  -4.33989634143464E-15  -1.91375139434813E-15
      1.00000000000000E+00
      8.00000000000000E-01   8.00000000000000E-01   0.00000000000000E+00   0.00000000000000E+00   5.24844704272022E-15
      1.64107929441763E-19   5.24861115064966E-15   3.43910410981462E-15   0.00000000000000E+00   0.00000000000000E+00
      0.00000000000000E+00   0.00000000000000E+00  -3.21800697132506E-18  -6.96932811252796E-16  -7.00150818224121E-16
     -1.52480217151774E-15   0.00000000000000E+00   0.00000000000000E+00   0.00000000000000E+00   0.00000000000000E+00
     -2.29808482264839E-17  -4.52547948419906E-15  -4.54846033242555E-15  -1.91430193829688E-15
}
