DF-ISE text

Info {
  version   = 1.0
  type      = xyplot
  datasets  = [
    "time"
    "Ntop OuterVoltage" "Ntop InnerVoltage" "Ntop QuasiFermiPotential" "Ntop DisplacementCurrent" "Ntop eCurrent"
    "Ntop hCurrent" "Ntop TotalCurrent" "Ntop Charge" "Ptop OuterVoltage" "Ptop InnerVoltage"
    "Ptop QuasiFermiPotential" "Ptop DisplacementCurrent" "Ptop eCurrent" "Ptop hCurrent" "Ptop TotalCurrent"
    "Ptop Charge" "Pbot OuterVoltage" "Pbot InnerVoltage" "Pbot QuasiFermiPotential" "Pbot DisplacementCurrent"
    "Pbot eCurrent" "Pbot hCurrent" "Pbot TotalCurrent" "Pbot Charge" ]
  functions = [
    Time
    OuterVoltage InnerVoltage QuasiFermiPotential DisplacementCurrent eCurrent
    hCurrent TotalCurrent Charge OuterVoltage InnerVoltage
    QuasiFermiPotential DisplacementCurrent eCurrent hCurrent TotalCurrent
    Charge OuterVoltage InnerVoltage QuasiFermiPotential DisplacementCurrent
    eCurrent hCurrent TotalCurrent Charge ]
}

Data {
      0.00000000000000E+00
      0.00000000000000E+00   0.00000000000000E+00   0.00000000000000E+00   0.00000000000000E+00   1.11249923982017E-22
     -2.57183819817777E-17  -2.57182707318537E-17   3.30279088958691E-15   0.00000000000000E+00   0.00000000000000E+00
      0.00000000000000E+00   0.00000000000000E+00  -1.11249924003392E-22  -1.15048079118628E-19  -1.15159329042632E-19
     -1.39594959433398E-15   0.00000000000000E+00   0.00000000000000E+00   0.00000000000000E+00   0.00000000000000E+00
      3.98996701790015E-30   2.58334300608923E-17   2.58334300608963E-17  -1.90684129525294E-15
      0.00000000000000E+00
      0.00000000000000E+00   0.00000000000000E+00   0.00000000000000E+00   0.00000000000000E+00  -1.20446206295024E-23
      2.38269703499860E-19   2.38257658879231E-19   3.30279088958691E-15   0.00000000000000E+00   0.00000000000000E+00
      0.00000000000000E+00   0.00000000000000E+00   1.20446183591738E-23   2.95999850981201E-20   2.96120297164793E-20
     -1.39594959433398E-15   0.00000000000000E+00   0.00000000000000E+00   0.00000000000000E+00   0.00000000000000E+00
     -3.98865908739093E-30  -2.67869688591721E-19  -2.67869688595710E-19  -1.90684129525294E-15
      1.00000000000000E-02
      8.00000000000000E-03   7.99999999999997E-03   0.00000000000000E+00   0.00000000000000E+00   7.61409529137356E-16
     -7.65829874601035E-19   7.60643699262755E-16   3.31332183963843E-15   0.00000000000000E+00   0.00000000000000E+00
      0.00000000000000E+00   0.00000000000000E+00  -2.73151371726011E-19  -5.69508340298575E-16  -5.69781491670301E-16
     -1.40640581362090E-15   0.00000000000000E+00   0.00000000000000E+00   0.00000000000000E+00   0.00000000000000E+00
     -6.88866472257240E-18  -1.83973542869880E-16  -1.90862207592452E-16  -1.90691602601753E-15
      2.37355555555556E-02
      1.89884444444444E-02   1.89884444444444E-02   0.00000000000000E+00   0.00000000000000E+00   1.65818797644759E-15
      1.63963431061126E-18   1.65982761075820E-15   3.32773335412708E-15   0.00000000000000E+00   0.00000000000000E+00
      0.00000000000000E+00   0.00000000000000E+00  -5.17204547752993E-19  -1.24695647675542E-15  -1.24747368130317E-15
     -1.42071469476374E-15   0.00000000000000E+00   0.00000000000000E+00   0.00000000000000E+00   0.00000000000000E+00
     -1.33874484109441E-17  -3.98966481044076E-16  -4.12353929455020E-16  -1.90701865936334E-15
      4.28523965432099E-02
      3.42819172345679E-02   3.42819172345679E-02   0.00000000000000E+00   0.00000000000000E+00   2.67605597507822E-15
     -1.27103163323942E-18   2.67478494344498E-15   3.34769205353102E-15   0.00000000000000E+00   0.00000000000000E+00
      0.00000000000000E+00   0.00000000000000E+00  -7.28621226837541E-19  -2.02228432656958E-15  -2.02301294779641E-15
     -1.44053057330382E-15   0.00000000000000E+00   0.00000000000000E+00   0.00000000000000E+00   0.00000000000000E+00
     -1.86652062367696E-17  -6.33106789411802E-16  -6.51771995648572E-16  -1.90716148022720E-15
      6.94587910111385E-02
      5.55670328089108E-02   5.55670328089109E-02   0.00000000000000E+00   0.00000000000000E+00   3.74848379628153E-15
      1.87856176542839E-18   3.75036235804696E-15   3.37528802038967E-15   0.00000000000000E+00   0.00000000000000E+00
      0.00000000000000E+00   0.00000000000000E+00  -8.74079346390323E-19  -2.83441988979960E-15  -2.83529396914599E-15
     -1.46792779866801E-15   0.00000000000000E+00   0.00000000000000E+00   0.00000000000000E+00   0.00000000000000E+00
     -2.18807328584835E-17  -8.93187656042474E-16  -9.15068388900957E-16  -1.90736022172165E-15
      1.06488979578391E-01
      8.51911836627130E-02   8.51911836627130E-02   0.00000000000000E+00   0.00000000000000E+00   4.76651131587305E-15
     -2.96911394563038E-19   4.76621440447849E-15   3.41336594278932E-15   0.00000000000000E+00   0.00000000000000E+00
      0.00000000000000E+00   0.00000000000000E+00  -9.50216204001083E-19  -3.57369568606716E-15  -3.57464590227116E-15
     -1.50572916278809E-15   0.00000000000000E+00   0.00000000000000E+00   0.00000000000000E+00   0.00000000000000E+00
     -2.29242448505973E-17  -1.16864425735673E-15  -1.19156850220733E-15  -1.90763678000124E-15
      1.58026773133214E-01
      1.26421418506571E-01   1.26421418506572E-01   0.00000000000000E+00   0.00000000000000E+00   5.64699973248627E-15
     -3.03798213913695E-19   5.64669593427236E-15   3.46577820733144E-15   0.00000000000000E+00   0.00000000000000E+00
      0.00000000000000E+00   0.00000000000000E+00  -9.77604481749445E-19  -4.14396411024656E-15  -4.14494171472831E-15
     -1.55775657275180E-15   0.00000000000000E+00   0.00000000000000E+00   0.00000000000000E+00   0.00000000000000E+00
     -2.29802278606113E-17  -1.47877399168342E-15  -1.50175421954403E-15  -1.90802163457964E-15
      2.28816795791517E-01
      1.83053436633213E-01   1.83053436633213E-01   0.00000000000000E+00   0.00000000000000E+00   6.45244820045163E-15
      1.08902732314195E-18   6.45353722777477E-15   3.53678074696339E-15   0.00000000000000E+00   0.00000000000000E+00
      0.00000000000000E+00   0.00000000000000E+00  -9.83772007331741E-19  -4.58742709629526E-15  -4.58841086830259E-15
     -1.62823054157789E-15   0.00000000000000E+00   0.00000000000000E+00   0.00000000000000E+00   0.00000000000000E+00
     -2.29806588405787E-17  -1.84214570063161E-15  -1.86512635947219E-15  -1.90855020538552E-15
      3.26050824691732E-01
      2.60840659753386E-01   2.60840659753386E-01   0.00000000000000E+00   0.00000000000000E+00   7.49456438354056E-15
      6.46198433259407E-19   7.49521058197382E-15   3.63268061349363E-15   0.00000000000000E+00   0.00000000000000E+00
      0.00000000000000E+00   0.00000000000000E+00  -9.85200637670129E-19  -5.19578096821910E-15  -5.19676616885677E-15
     -1.72340443375795E-15   0.00000000000000E+00   0.00000000000000E+00   0.00000000000000E+00   0.00000000000000E+00
     -2.29806785440039E-17  -2.27546373457307E-15  -2.29844441311707E-15  -1.90927617973568E-15
      4.26050824691732E-01
      3.40840659753386E-01   3.40840659753386E-01   0.00000000000000E+00   0.00000000000000E+00   8.88049801764774E-15
     -5.20644497485858E-19   8.87997737315026E-15   3.72959909773048E-15   0.00000000000000E+00   0.00000000000000E+00
      0.00000000000000E+00   0.00000000000000E+00  -9.86086555454927E-19  -6.18289844477962E-15  -6.18388453133507E-15
     -1.81957637402283E-15   0.00000000000000E+00   0.00000000000000E+00   0.00000000000000E+00   0.00000000000000E+00
     -2.29807048320008E-17  -2.67311213698319E-15  -2.69609284181519E-15  -1.91002272370765E-15
      5.26050824691732E-01
      4.20840659753386E-01   4.20840659753385E-01   0.00000000000000E+00   0.00000000000000E+00   1.03829845271846E-14
      8.77596713618445E-19   1.03838621238982E-14   3.82497004516687E-15   0.00000000000000E+00   0.00000000000000E+00
      0.00000000000000E+00   0.00000000000000E+00  -9.86900874808115E-19  -7.31827828023563E-15  -7.31926518111044E-15
     -1.91420093722227E-15   0.00000000000000E+00   0.00000000000000E+00   0.00000000000000E+00   0.00000000000000E+00
     -2.29807298235544E-17  -3.04161621296423E-15  -3.06459694278779E-15  -1.91076910794460E-15
      6.26050824691732E-01
      5.00840659753386E-01   5.00840659753386E-01   0.00000000000000E+00   0.00000000000000E+00   1.15685296711449E-14
     -1.58329406755470E-19   1.15683713417381E-14   3.91889183902202E-15   0.00000000000000E+00   0.00000000000000E+00
      0.00000000000000E+00   0.00000000000000E+00  -9.87665528059497E-19  -8.15943030107347E-15  -8.16041796660153E-15
     -2.00737659557726E-15   0.00000000000000E+00   0.00000000000000E+00   0.00000000000000E+00   0.00000000000000E+00
     -2.29807548183586E-17  -3.38497262031817E-15  -3.40795337513653E-15  -1.91151524344475E-15
      7.26050824691732E-01
      5.80840659753386E-01   5.80840659753386E-01   0.00000000000000E+00   0.00000000000000E+00   1.25143422599667E-14
      5.80369960073256E-19   1.25149226299268E-14   4.01138147025844E-15   0.00000000000000E+00   0.00000000000000E+00
      0.00000000000000E+00   0.00000000000000E+00  -9.88384582971559E-19  -8.77918956244480E-15  -8.78017794702778E-15
     -2.09912042222042E-15   0.00000000000000E+00   0.00000000000000E+00   0.00000000000000E+00   0.00000000000000E+00
     -2.29807798089415E-17  -3.71176390309003E-15  -3.73474468289897E-15  -1.91226104803801E-15
      8.26050824691732E-01
      6.60840659753386E-01   6.60840659753386E-01   0.00000000000000E+00   0.00000000000000E+00   1.33708408599873E-14
      4.69129458918078E-19   1.33713099894463E-14   4.10237770918627E-15   0.00000000000000E+00   0.00000000000000E+00
      0.00000000000000E+00   0.00000000000000E+00  -9.89062312451662E-19  -9.32584291524363E-15  -9.32683197755608E-15
     -2.18937125809416E-15   0.00000000000000E+00   0.00000000000000E+00   0.00000000000000E+00   0.00000000000000E+00
     -2.29808047922901E-17  -4.02149720709792E-15  -4.04447801189021E-15  -1.91300645109211E-15
      9.26050824691732E-01
      7.40840659753386E-01   7.40840659753386E-01   0.00000000000000E+00   0.00000000000000E+00   1.41787675264786E-14
      5.46409537069032E-19   1.41793139360157E-14   4.19175365222622E-15   0.00000000000000E+00   0.00000000000000E+00
      0.00000000000000E+00   0.00000000000000E+00  -9.89703047272450E-19  -9.83897435140008E-15  -9.83996405444735E-15
     -2.27800226214769E-15   0.00000000000000E+00   0.00000000000000E+00   0.00000000000000E+00   0.00000000000000E+00
     -2.29808297659885E-17  -4.31636905180236E-15  -4.33934988156835E-15  -1.91375139007854E-15
      1.00000000000000E+00
      8.00000000000000E-01   8.00000000000000E-01   0.00000000000000E+00   0.00000000000000E+00   1.47430125088886E-14
      6.95897881770319E-19   1.47437084067704E-14   4.25671792714626E-15   0.00000000000000E+00   0.00000000000000E+00
      0.00000000000000E+00   0.00000000000000E+00  -9.90155408553509E-19  -1.01940543365478E-14  -1.01950444919564E-14
     -2.34241599714350E-15   0.00000000000000E+00   0.00000000000000E+00   0.00000000000000E+00   0.00000000000000E+00
     -2.29808482262057E-17  -4.52568306658775E-15  -4.54866391481395E-15  -1.91430193000277E-15
}
