DF-ISE text

Info {
  version   = 1.0
  type      = xyplot
  datasets  = [
    "time"
    "Ntop OuterVoltage" "Ntop InnerVoltage" "Ntop QuasiFermiPotential" "Ntop DisplacementCurrent" "Ntop eCurrent"
    "Ntop hCurrent" "Ntop TotalCurrent" "Ntop Charge" "Ptop OuterVoltage" "Ptop InnerVoltage"
    "Ptop QuasiFermiPotential" "Ptop DisplacementCurrent" "Ptop eCurrent" "Ptop hCurrent" "Ptop TotalCurrent"
    "Ptop Charge" "Pbot OuterVoltage" "Pbot InnerVoltage" "Pbot QuasiFermiPotential" "Pbot DisplacementCurrent"
    "Pbot eCurrent" "Pbot hCurrent" "Pbot TotalCurrent" "Pbot Charge" ]
  functions = [
    Time
    OuterVoltage InnerVoltage QuasiFermiPotential DisplacementCurrent eCurrent
    hCurrent TotalCurrent Charge OuterVoltage InnerVoltage
    QuasiFermiPotential DisplacementCurrent eCurrent hCurrent TotalCurrent
    Charge OuterVoltage InnerVoltage QuasiFermiPotential DisplacementCurrent
    eCurrent hCurrent TotalCurrent Charge ]
}

Data {
      0.00000000000000E+00
      0.00000000000000E+00   0.00000000000000E+00   0.00000000000000E+00   0.00000000000000E+00  -1.43392593100238E-23
     -2.57927403466645E-17  -2.57927546859239E-17   3.48213650012178E-15   0.00000000000000E+00   0.00000000000000E+00
      0.00000000000000E+00   0.00000000000000E+00   1.43393010553498E-23  -1.15694263655645E-19  -1.15679924354590E-19
     -1.57529520486937E-15   0.00000000000000E+00   0.00000000000000E+00   0.00000000000000E+00   0.00000000000000E+00
     -4.12957376022351E-29   2.59084346103197E-17   2.59084346102784E-17  -1.90684129525242E-15
      0.00000000000000E+00
      0.00000000000000E+00   0.00000000000000E+00   0.00000000000000E+00   0.00000000000000E+00   1.45202553950957E-22
      1.25769232464110E-19   1.25914435018061E-19   3.48213649720853E-15   0.00000000000000E+00   0.00000000000000E+00
      0.00000000000000E+00   0.00000000000000E+00  -1.45202549932808E-22   1.35339549171526E-20   1.33887523672198E-20
     -1.57529520195610E-15   0.00000000000000E+00   0.00000000000000E+00   0.00000000000000E+00   0.00000000000000E+00
     -7.04204870441189E-31  -1.39303187384577E-19  -1.39303187385281E-19  -1.90684129525242E-15
      1.00000000000000E-02
      8.00000000000000E-03   7.99999999999997E-03   0.00000000000000E+00   0.00000000000000E+00   2.66594243039736E-16
      1.41154640694605E-18   2.68005789446682E-16   3.49503174903587E-15   0.00000000000000E+00   0.00000000000000E+00
      0.00000000000000E+00   0.00000000000000E+00  -4.16193161250387E-19  -7.45308498247165E-17  -7.49470429859669E-17
     -1.58811572301932E-15   0.00000000000000E+00   0.00000000000000E+00   0.00000000000000E+00   0.00000000000000E+00
     -6.88866469366455E-18  -1.86170081767050E-16  -1.93058746460715E-16  -1.90691602601656E-15
      2.37355555555556E-02
      1.89884444444444E-02   1.89884444444444E-02   0.00000000000000E+00   0.00000000000000E+00   5.65634080826260E-16
      1.43395311220919E-18   5.67068033938469E-16   3.51269789461977E-15   0.00000000000000E+00   0.00000000000000E+00
      0.00000000000000E+00   0.00000000000000E+00  -7.98654767875275E-19  -1.54226180344345E-16  -1.55024835112220E-16
     -1.60567923525797E-15   0.00000000000000E+00   0.00000000000000E+00   0.00000000000000E+00   0.00000000000000E+00
     -1.33874483702396E-17  -3.98655750456010E-16  -4.12043198826249E-16  -1.90701865936181E-15
      4.28523965432099E-02
      3.42819172345679E-02   3.42819172345679E-02   0.00000000000000E+00   0.00000000000000E+00   8.89942037369766E-16
     -6.16356525578306E-19   8.89325680844188E-16   3.53719991711953E-15   0.00000000000000E+00   0.00000000000000E+00
      0.00000000000000E+00   0.00000000000000E+00  -1.12588442266188E-18  -2.35784908371931E-16  -2.36910792794593E-16
     -1.63003843689460E-15   0.00000000000000E+00   0.00000000000000E+00   0.00000000000000E+00   0.00000000000000E+00
     -1.86652062020631E-17  -6.33749681847530E-16  -6.52414888049594E-16  -1.90716148022494E-15
      6.94587910111385E-02
      5.55670328089108E-02   5.55670328089109E-02   0.00000000000000E+00   0.00000000000000E+00   1.22959751359704E-15
      9.16361562507195E-19   1.23051387515955E-15   3.57114511817524E-15   0.00000000000000E+00   0.00000000000000E+00
      0.00000000000000E+00   0.00000000000000E+00  -1.35171271934855E-18  -3.14918813881804E-16  -3.16270526601152E-16
     -1.66378489645682E-15   0.00000000000000E+00   0.00000000000000E+00   0.00000000000000E+00   0.00000000000000E+00
     -2.18807328412954E-17  -8.92362615717100E-16  -9.14243348558396E-16  -1.90736022171842E-15
      1.06488979578391E-01
      8.51911836627130E-02   8.51911836627130E-02   0.00000000000000E+00   0.00000000000000E+00   1.58747308833995E-15
     -3.95322601257445E-18   1.58351986232738E-15   3.61810877991302E-15   0.00000000000000E+00   0.00000000000000E+00
      0.00000000000000E+00   0.00000000000000E+00  -1.47056836636762E-18  -3.91434411540354E-16  -3.92904979906721E-16
     -1.71047199991648E-15   0.00000000000000E+00   0.00000000000000E+00   0.00000000000000E+00   0.00000000000000E+00
     -2.29242448482747E-17  -1.16769063757238E-15  -1.19061488242065E-15  -1.90763677999654E-15
      1.58026773133214E-01
      1.26421418506571E-01   1.26421418506572E-01   0.00000000000000E+00   0.00000000000000E+00   1.98879238713738E-15
      2.93454596484191E-20   1.98882173259703E-15   3.68297916545878E-15   0.00000000000000E+00   0.00000000000000E+00
      0.00000000000000E+00   0.00000000000000E+00  -1.51370005434041E-18  -4.85425223821348E-16  -4.86938923875689E-16
     -1.77495753088638E-15   0.00000000000000E+00   0.00000000000000E+00   0.00000000000000E+00   0.00000000000000E+00
     -2.29802278606097E-17  -1.47890258086073E-15  -1.50188280872134E-15  -1.90802163457239E-15
      2.28816795791517E-01
      1.83053436633213E-01   1.83053436633213E-01   0.00000000000000E+00   0.00000000000000E+00   2.47253018092855E-15
     -8.85783614837928E-19   2.47164439731372E-15   3.77125483780489E-15   0.00000000000000E+00   0.00000000000000E+00
      0.00000000000000E+00   0.00000000000000E+00  -1.52335676713842E-18  -6.07051924882783E-16  -6.08575281649922E-16
     -1.86270463243200E-15   0.00000000000000E+00   0.00000000000000E+00   0.00000000000000E+00   0.00000000000000E+00
     -2.29806588405786E-17  -1.84008845682322E-15  -1.86306911566380E-15  -1.90855020537288E-15
      3.26050824691732E-01
      2.60840659753386E-01   2.60840659753386E-01   0.00000000000000E+00   0.00000000000000E+00   3.10233199881724E-15
      3.25615710456076E-19   3.10265761452769E-15   3.89114809345351E-15   0.00000000000000E+00   0.00000000000000E+00
      0.00000000000000E+00   0.00000000000000E+00  -1.52522148280697E-18  -8.03148729333059E-16  -8.04673950815866E-16
     -1.98187191374490E-15   0.00000000000000E+00   0.00000000000000E+00   0.00000000000000E+00   0.00000000000000E+00
     -2.29806785440022E-17  -2.27500298516782E-15  -2.29798366371182E-15  -1.90927617970862E-15
      4.26050824691732E-01
      3.40840659753386E-01   3.40840659753386E-01   0.00000000000000E+00   0.00000000000000E+00   3.73764082695704E-15
      3.05044261512550E-19   3.73794587121855E-15   4.01300168207015E-15   0.00000000000000E+00   0.00000000000000E+00
      0.00000000000000E+00   0.00000000000000E+00  -1.52623535509957E-18  -1.03965178549784E-15  -1.04117802085294E-15
     -2.10297895842286E-15   0.00000000000000E+00   0.00000000000000E+00   0.00000000000000E+00   0.00000000000000E+00
     -2.29807048319986E-17  -2.67378714553361E-15  -2.69676785036561E-15  -1.91002272364729E-15
      5.26050824691732E-01
      4.20840659753386E-01   4.20840659753385E-01   0.00000000000000E+00   0.00000000000000E+00   4.29316189211159E-15
     -2.28030972850164E-19   4.29293386113874E-15   4.13348565205826E-15   0.00000000000000E+00   0.00000000000000E+00
      0.00000000000000E+00   0.00000000000000E+00  -1.52715810320067E-18  -1.22812767743112E-15  -1.22965483553432E-15
     -2.22271654425052E-15   0.00000000000000E+00   0.00000000000000E+00   0.00000000000000E+00   0.00000000000000E+00
     -2.29807298235495E-17  -3.04029829578087E-15  -3.06327902560442E-15  -1.91076910780774E-15
      6.26050824691732E-01
      5.00840659753386E-01   5.00840659753386E-01   0.00000000000000E+00   0.00000000000000E+00   4.75363737521511E-15
     -5.53501331448523E-19   4.75308387388366E-15   4.25260046247664E-15   0.00000000000000E+00   0.00000000000000E+00
      0.00000000000000E+00   0.00000000000000E+00  -1.52801718898135E-18  -1.34423465836410E-15  -1.34576267555308E-15
     -2.34108521934547E-15   0.00000000000000E+00   0.00000000000000E+00   0.00000000000000E+00   0.00000000000000E+00
     -2.29807548183482E-17  -3.38434044351224E-15  -3.40732119833059E-15  -1.91151524313116E-15
      7.26050824691732E-01
      5.80840659753386E-01   5.80840659753386E-01   0.00000000000000E+00   0.00000000000000E+00   5.16177747999679E-15
      2.86092730207002E-19   5.16206357272700E-15   4.37025582368838E-15   0.00000000000000E+00   0.00000000000000E+00
      0.00000000000000E+00   0.00000000000000E+00  -1.52881900065188E-18  -1.42634723822474E-15  -1.42787605722539E-15
     -2.45799477637651E-15   0.00000000000000E+00   0.00000000000000E+00   0.00000000000000E+00   0.00000000000000E+00
     -2.29807798089173E-17  -3.71120673569269E-15  -3.73418751550161E-15  -1.91226104731186E-15
      8.26050824691732E-01
      6.60840659753386E-01   6.60840659753386E-01   0.00000000000000E+00   0.00000000000000E+00   5.54260253898347E-15
     -5.56667635771351E-19   5.54204587134770E-15   4.48627735295094E-15   0.00000000000000E+00   0.00000000000000E+00
      0.00000000000000E+00   0.00000000000000E+00  -1.52957288196214E-18  -1.49734549298831E-15  -1.49887506587027E-15
     -2.57327090356793E-15   0.00000000000000E+00   0.00000000000000E+00   0.00000000000000E+00   0.00000000000000E+00
     -2.29808047922326E-17  -4.02019000068519E-15  -4.04317080547743E-15  -1.91300644938299E-15
      9.26050824691732E-01
      7.40840659753386E-01   7.40840659753386E-01   0.00000000000000E+00   0.00000000000000E+00   5.90660244117795E-15
     -8.23708154940459E-19   5.90577873302301E-15   4.60042263285884E-15   0.00000000000000E+00   0.00000000000000E+00
      0.00000000000000E+00   0.00000000000000E+00  -1.53028148950912E-18  -1.56652721935644E-15  -1.56805750084595E-15
     -2.68667124690101E-15   0.00000000000000E+00   0.00000000000000E+00   0.00000000000000E+00   0.00000000000000E+00
     -2.29808297658503E-17  -4.31474040241121E-15  -4.33772123217706E-15  -1.91375138595784E-15
      1.00000000000000E+00
      8.00000000000000E-01   8.00000000000000E-01   0.00000000000000E+00   0.00000000000000E+00   6.16872555684672E-15
      5.81888177318223E-19   6.16930744502404E-15   4.68347238568292E-15   0.00000000000000E+00   0.00000000000000E+00
      0.00000000000000E+00   0.00000000000000E+00  -1.53077990971981E-18  -1.61949850001561E-15  -1.62102927992533E-15
     -2.76917046371553E-15   0.00000000000000E+00   0.00000000000000E+00   0.00000000000000E+00   0.00000000000000E+00
     -2.29808482259361E-17  -4.52529731687276E-15  -4.54827816509870E-15  -1.91430192196738E-15
}
