DF-ISE text

Info {
  version   = 1.0
  type      = xyplot
  datasets  = [
    "time"
    "Ntop OuterVoltage" "Ntop InnerVoltage" "Ntop QuasiFermiPotential" "Ntop DisplacementCurrent" "Ntop eCurrent"
    "Ntop hCurrent" "Ntop TotalCurrent" "Ntop Charge" "Ptop OuterVoltage" "Ptop InnerVoltage"
    "Ptop QuasiFermiPotential" "Ptop DisplacementCurrent" "Ptop eCurrent" "Ptop hCurrent" "Ptop TotalCurrent"
    "Ptop Charge" "Pbot OuterVoltage" "Pbot InnerVoltage" "Pbot QuasiFermiPotential" "Pbot DisplacementCurrent"
    "Pbot eCurrent" "Pbot hCurrent" "Pbot TotalCurrent" "Pbot Charge" ]
  functions = [
    Time
    OuterVoltage InnerVoltage QuasiFermiPotential DisplacementCurrent eCurrent
    hCurrent TotalCurrent Charge OuterVoltage InnerVoltage
    QuasiFermiPotential DisplacementCurrent eCurrent hCurrent TotalCurrent
    Charge OuterVoltage InnerVoltage QuasiFermiPotential DisplacementCurrent
    eCurrent hCurrent TotalCurrent Charge ]
}

Data {
      0.00000000000000E+00
      0.00000000000000E+00   0.00000000000000E+00   0.00000000000000E+00   0.00000000000000E+00   1.11249923982071E-22
     -2.57183819817777E-17  -2.57182707318537E-17   3.30279088958691E-15   0.00000000000000E+00   0.00000000000000E+00
      0.00000000000000E+00   0.00000000000000E+00  -1.11249927460551E-22  -1.15048079115171E-19  -1.15159329042631E-19
     -1.39594959433398E-15   0.00000000000000E+00   0.00000000000000E+00   0.00000000000000E+00   0.00000000000000E+00
      3.98996701790015E-30   2.58334300608923E-17   2.58334300608963E-17  -1.90684129525294E-15
      0.00000000000000E+00
      0.00000000000000E+00   0.00000000000000E+00   0.00000000000000E+00   0.00000000000000E+00  -1.20446206294332E-23
      2.38269703499860E-19   2.38257658879231E-19   3.30279088958691E-15   0.00000000000000E+00   0.00000000000000E+00
      0.00000000000000E+00   0.00000000000000E+00   1.20446286111281E-23   2.95999850878681E-20   2.96120297164792E-20
     -1.39594959433398E-15   0.00000000000000E+00   0.00000000000000E+00   0.00000000000000E+00   0.00000000000000E+00
     -3.98865908739093E-30  -2.67869688591721E-19  -2.67869688595710E-19  -1.90684129525294E-15
      1.00000000000000E-02
      8.00000000000000E-03   7.99999999999997E-03   0.00000000000000E+00   0.00000000000000E+00   2.76733662543904E-16
     -1.45193020253170E-18   2.75281732341373E-16   3.31332183963944E-15   0.00000000000000E+00   0.00000000000000E+00
      0.00000000000000E+00   0.00000000000000E+00  -4.51553236418492E-19  -8.45251421491613E-17  -8.49766953855798E-17
     -1.40640581362191E-15   0.00000000000000E+00   0.00000000000000E+00   0.00000000000000E+00   0.00000000000000E+00
     -6.88866472269433E-18  -1.83416372233099E-16  -1.90305036955793E-16  -1.90691602601753E-15
      2.37355555555556E-02
      1.89884444444444E-02   1.89884444444444E-02   0.00000000000000E+00   0.00000000000000E+00   5.94016817475806E-16
      1.59598755898464E-18   5.95612805034790E-16   3.32773335412930E-15   0.00000000000000E+00   0.00000000000000E+00
      0.00000000000000E+00   0.00000000000000E+00  -8.65126639696464E-19  -1.82479464259969E-16  -1.83344590899665E-16
     -1.42071469476597E-15   0.00000000000000E+00   0.00000000000000E+00   0.00000000000000E+00   0.00000000000000E+00
     -1.33874484111099E-17  -3.98880765724014E-16  -4.12268214135124E-16  -1.90701865936334E-15
      4.28523965432099E-02
      3.42819172345679E-02   3.42819172345679E-02   0.00000000000000E+00   0.00000000000000E+00   9.46212657687459E-16
     -1.08270606504073E-18   9.45129951622418E-16   3.34769205353465E-15   0.00000000000000E+00   0.00000000000000E+00
      0.00000000000000E+00   0.00000000000000E+00  -1.21985314401510E-18  -2.91805940982039E-16  -2.93025794126054E-16
     -1.44053057330744E-15   0.00000000000000E+00   0.00000000000000E+00   0.00000000000000E+00   0.00000000000000E+00
     -1.86652062368985E-17  -6.33438951259465E-16  -6.52104157496364E-16  -1.90716148022720E-15
      6.94587910111385E-02
      5.55670328089108E-02   5.55670328089109E-02   0.00000000000000E+00   0.00000000000000E+00   1.31967567741148E-15
      1.64174918001291E-18   1.32131742659149E-15   3.37528802039481E-15   0.00000000000000E+00   0.00000000000000E+00
      0.00000000000000E+00   0.00000000000000E+00  -1.46428709821784E-18  -4.05009770719430E-16  -4.06474057817648E-16
     -1.46792779867314E-15   0.00000000000000E+00   0.00000000000000E+00   0.00000000000000E+00   0.00000000000000E+00
     -2.18807328585380E-17  -8.92962635915306E-16  -9.14843368773843E-16  -1.90736022172166E-15
      1.06488979578391E-01
      8.51911836627130E-02   8.51911836627130E-02   0.00000000000000E+00   0.00000000000000E+00   1.70447777170748E-15
     -1.00273819288414E-18   1.70347503351460E-15   3.41336594279584E-15   0.00000000000000E+00   0.00000000000000E+00
      0.00000000000000E+00   0.00000000000000E+00  -1.59313928141604E-18  -5.10945568831777E-16  -5.12538708113193E-16
     -1.50572916279460E-15   0.00000000000000E+00   0.00000000000000E+00   0.00000000000000E+00   0.00000000000000E+00
     -2.29242448506031E-17  -1.16801208055080E-15  -1.19093632540140E-15  -1.90763678000124E-15
      1.58026773133214E-01
      1.26421418506571E-01   1.26421418506572E-01   0.00000000000000E+00   0.00000000000000E+00   2.10746585348811E-15
     -6.20251943728528E-19   2.10684560154438E-15   3.46577820733902E-15   0.00000000000000E+00   0.00000000000000E+00
      0.00000000000000E+00   0.00000000000000E+00  -1.63989425407889E-18  -6.03708623988122E-16  -6.05348518242201E-16
     -1.55775657275938E-15   0.00000000000000E+00   0.00000000000000E+00   0.00000000000000E+00   0.00000000000000E+00
     -2.29802278606112E-17  -1.47851685544157E-15  -1.50149708330218E-15  -1.90802163457965E-15
      2.28816795791517E-01
      1.83053436633213E-01   1.83053436633213E-01   0.00000000000000E+00   0.00000000000000E+00   2.55510730288411E-15
      9.93275227077649E-19   2.55610057811118E-15   3.53678074697182E-15   0.00000000000000E+00   0.00000000000000E+00
      0.00000000000000E+00   0.00000000000000E+00  -1.65036526673329E-18  -6.89388140672171E-16  -6.91038505938904E-16
     -1.62823054158630E-15   0.00000000000000E+00   0.00000000000000E+00   0.00000000000000E+00   0.00000000000000E+00
     -2.29806588405788E-17  -1.84208141333170E-15  -1.86506207217228E-15  -1.90855020538553E-15
      3.26050824691732E-01
      2.60840659753386E-01   2.60840659753386E-01   0.00000000000000E+00   0.00000000000000E+00   3.10135543002153E-15
      2.67752215493590E-20   3.10138220524308E-15   3.63268061350323E-15   0.00000000000000E+00   0.00000000000000E+00
      0.00000000000000E+00   0.00000000000000E+00  -1.65233280288419E-18  -8.01778342659998E-16  -8.03430675462882E-16
     -1.72340443376756E-15   0.00000000000000E+00   0.00000000000000E+00   0.00000000000000E+00   0.00000000000000E+00
     -2.29806785440038E-17  -2.27497085123620E-15  -2.29795152978020E-15  -1.90927617973569E-15
      4.26050824691732E-01
      3.40840659753386E-01   3.40840659753386E-01   0.00000000000000E+00   0.00000000000000E+00   3.64915475737308E-15
     -4.47197888819103E-19   3.64870755948426E-15   3.72959909774209E-15   0.00000000000000E+00   0.00000000000000E+00
      0.00000000000000E+00   0.00000000000000E+00  -1.65337596943237E-18  -9.50725625379328E-16  -9.52379001348760E-16
     -1.81957637403443E-15   0.00000000000000E+00   0.00000000000000E+00   0.00000000000000E+00   0.00000000000000E+00
     -2.29807048320009E-17  -2.67334785330350E-15  -2.69632855813550E-15  -1.91002272370766E-15
      5.26050824691732E-01
      4.20840659753386E-01   4.20840659753385E-01   0.00000000000000E+00   0.00000000000000E+00   4.17784878983895E-15
      8.25344330578425E-19   4.17867413416953E-15   3.82497004518075E-15   0.00000000000000E+00   0.00000000000000E+00
      0.00000000000000E+00   0.00000000000000E+00  -1.65432549432602E-18  -1.11249785585936E-15  -1.11415218135368E-15
     -1.91420093723614E-15   0.00000000000000E+00   0.00000000000000E+00   0.00000000000000E+00   0.00000000000000E+00
     -2.29807298235541E-17  -3.04154122299230E-15  -3.06452195281585E-15  -1.91076910794461E-15
      6.26050824691732E-01
      5.00840659753386E-01   5.00840659753386E-01   0.00000000000000E+00   0.00000000000000E+00   4.65156646752245E-15
     -1.56256853400321E-20   4.65155084183711E-15   3.91889183903742E-15   0.00000000000000E+00   0.00000000000000E+00
      0.00000000000000E+00   0.00000000000000E+00  -1.65520824446509E-18  -1.24186725390669E-15  -1.24352246215115E-15
     -2.00737659559266E-15   0.00000000000000E+00   0.00000000000000E+00   0.00000000000000E+00   0.00000000000000E+00
     -2.29807548183586E-17  -3.38504762486760E-15  -3.40802837968596E-15  -1.91151524344477E-15
      7.26050824691732E-01
      5.80840659753386E-01   5.80840659753386E-01   0.00000000000000E+00   0.00000000000000E+00   5.08310026694960E-15
     -3.54996828241284E-19   5.08274527012136E-15   4.01138147027483E-15   0.00000000000000E+00   0.00000000000000E+00
      0.00000000000000E+00   0.00000000000000E+00  -1.65603414580508E-18  -1.34733031489117E-15  -1.34898634903698E-15
     -2.09912042223682E-15   0.00000000000000E+00   0.00000000000000E+00   0.00000000000000E+00   0.00000000000000E+00
     -2.29807798089417E-17  -3.71077814127545E-15  -3.73375892108439E-15  -1.91226104803802E-15
      8.26050824691732E-01
      6.60840659753386E-01   6.60840659753386E-01   0.00000000000000E+00   0.00000000000000E+00   5.49060861995906E-15
      5.08336088826458E-19   5.49111695604788E-15   4.10237770920348E-15   0.00000000000000E+00   0.00000000000000E+00
      0.00000000000000E+00   0.00000000000000E+00  -1.65680919316233E-18  -1.44501427051586E-15  -1.44667107970902E-15
     -2.18937125811136E-15   0.00000000000000E+00   0.00000000000000E+00   0.00000000000000E+00   0.00000000000000E+00
     -2.29808047922900E-17  -4.02146507154657E-15  -4.04444587633886E-15  -1.91300645109212E-15
      9.26050824691732E-01
      7.40840659753386E-01   7.40840659753386E-01   0.00000000000000E+00   0.00000000000000E+00   5.88043086562504E-15
      8.26028947556081E-19   5.88125689457259E-15   4.19175365224418E-15   0.00000000000000E+00   0.00000000000000E+00
      0.00000000000000E+00   0.00000000000000E+00  -1.65753901057043E-18  -1.53998160106565E-15  -1.54163914007622E-15
     -2.27800226216562E-15   0.00000000000000E+00   0.00000000000000E+00   0.00000000000000E+00   0.00000000000000E+00
     -2.29808297659888E-17  -4.31663692473040E-15  -4.33961775449638E-15  -1.91375139007855E-15
      1.00000000000000E+00
      8.00000000000000E-01   8.00000000000000E-01   0.00000000000000E+00   0.00000000000000E+00   6.15873723752215E-15
     -2.26926392138972E-19   6.15851031113001E-15   4.25671792716471E-15   0.00000000000000E+00   0.00000000000000E+00
      0.00000000000000E+00   0.00000000000000E+00  -1.65805264287388E-18  -1.60904551954990E-15  -1.61070357219277E-15
     -2.34241599716192E-15   0.00000000000000E+00   0.00000000000000E+00   0.00000000000000E+00   0.00000000000000E+00
     -2.29808482262055E-17  -4.52482589071103E-15  -4.54780673893723E-15  -1.91430193000278E-15
}
