DF-ISE text

Info {
  version   = 1.0
  type      = xyplot
  datasets  = [
    "time"
    "Ntop OuterVoltage" "Ntop InnerVoltage" "Ntop QuasiFermiPotential" "Ntop DisplacementCurrent" "Ntop eCurrent"
    "Ntop hCurrent" "Ntop TotalCurrent" "Ntop Charge" "Ptop OuterVoltage" "Ptop InnerVoltage"
    "Ptop QuasiFermiPotential" "Ptop DisplacementCurrent" "Ptop eCurrent" "Ptop hCurrent" "Ptop TotalCurrent"
    "Ptop Charge" "Pbot OuterVoltage" "Pbot InnerVoltage" "Pbot QuasiFermiPotential" "Pbot DisplacementCurrent"
    "Pbot eCurrent" "Pbot hCurrent" "Pbot TotalCurrent" "Pbot Charge" ]
  functions = [
    Time
    OuterVoltage InnerVoltage QuasiFermiPotential DisplacementCurrent eCurrent
    hCurrent TotalCurrent Charge OuterVoltage InnerVoltage
    QuasiFermiPotential DisplacementCurrent eCurrent hCurrent TotalCurrent
    Charge OuterVoltage InnerVoltage QuasiFermiPotential DisplacementCurrent
    eCurrent hCurrent TotalCurrent Charge ]
}

Data {
      0.00000000000000E+00
      0.00000000000000E+00   0.00000000000000E+00   0.00000000000000E+00   0.00000000000000E+00  -6.78526964739161E-23
     -2.60151337948690E-17  -2.60152016475655E-17   6.32724820948915E-15   0.00000000000000E+00   0.00000000000000E+00
      0.00000000000000E+00   0.00000000000000E+00   6.78526711671741E-23   2.35277023805938E-19   2.35344876477105E-19
     -4.42040691434333E-15   0.00000000000000E+00   0.00000000000000E+00   0.00000000000000E+00   0.00000000000000E+00
      2.58098377815814E-29   2.57798567710626E-17   2.57798567710884E-17  -1.90684129514576E-15
      0.00000000000000E+00
      0.00000000000000E+00   0.00000000000000E+00   0.00000000000000E+00   0.00000000000000E+00   9.41926157323148E-23
     -2.30754701676577E-18  -2.30745282415003E-18   6.32724820959573E-15   0.00000000000000E+00   0.00000000000000E+00
      0.00000000000000E+00   0.00000000000000E+00  -9.41926101247632E-23  -6.86704763777641E-21  -6.96124024790118E-21
     -4.42040691434337E-15   0.00000000000000E+00   0.00000000000000E+00   0.00000000000000E+00   0.00000000000000E+00
     -2.58050237528708E-30   2.31441406440052E-18   2.31441406439794E-18  -1.90684129525234E-15
      1.00000000000000E-02
      8.00000000000000E-03   7.99999999999997E-03   0.00000000000000E+00   0.00000000000000E+00   2.69522632374029E-16
      2.22860465325885E-18   2.71751237027288E-16   6.36547202064557E-15   0.00000000000000E+00   0.00000000000000E+00
      0.00000000000000E+00   0.00000000000000E+00  -3.99619880045255E-19  -7.74035430770267E-17  -7.78031629570720E-17
     -4.45855599462931E-15   0.00000000000000E+00   0.00000000000000E+00   0.00000000000000E+00   0.00000000000000E+00
     -6.88866467788617E-18  -1.87059409392330E-16  -1.93948074070216E-16  -1.90691602601627E-15
      2.37355555555556E-02
      1.89884444444444E-02   1.89884444444444E-02   0.00000000000000E+00   0.00000000000000E+00   5.71686192230720E-16
      1.65757171721092E-18   5.73343763947931E-16   6.41783156505900E-15   0.00000000000000E+00   0.00000000000000E+00
      0.00000000000000E+00   0.00000000000000E+00  -7.78359712308317E-19  -1.60350766693147E-16  -1.61129126405455E-16
     -4.51081290569775E-15   0.00000000000000E+00   0.00000000000000E+00   0.00000000000000E+00   0.00000000000000E+00
     -1.33874483477350E-17  -3.98827189194740E-16  -4.12214637542476E-16  -1.90701865936125E-15
      4.28523965432099E-02
      3.42819172345679E-02   3.42819172345679E-02   0.00000000000000E+00   0.00000000000000E+00   8.99254329094489E-16
     -7.48830077859012E-19   8.98505499016630E-16   6.49043324691900E-15   0.00000000000000E+00   0.00000000000000E+00
      0.00000000000000E+00   0.00000000000000E+00  -1.09720520694514E-18  -2.45100566936767E-16  -2.46197772143712E-16
     -4.58327176669498E-15   0.00000000000000E+00   0.00000000000000E+00   0.00000000000000E+00   0.00000000000000E+00
     -1.86652061825391E-17  -6.33642520690378E-16  -6.52307726872917E-16  -1.90716148022405E-15
      6.94587910111385E-02
      5.55670328089108E-02   5.55670328089109E-02   0.00000000000000E+00   0.00000000000000E+00   1.24245015017783E-15
      7.81128994850788E-19   1.24323127917268E-15   6.59096519528159E-15   0.00000000000000E+00   0.00000000000000E+00
      0.00000000000000E+00   0.00000000000000E+00  -1.31719852782486E-18  -3.28099336231944E-16  -3.29416534759768E-16
     -4.68360497356449E-15   0.00000000000000E+00   0.00000000000000E+00   0.00000000000000E+00   0.00000000000000E+00
     -2.18807328313860E-17  -8.91934011581526E-16  -9.13814744412912E-16  -1.90736022171709E-15
      1.06488979578391E-01
      8.51911836627130E-02   8.51911836627130E-02   0.00000000000000E+00   0.00000000000000E+00   1.60482083235048E-15
      2.74761933894235E-19   1.60509559428438E-15   6.72992291099699E-15   0.00000000000000E+00   0.00000000000000E+00
      0.00000000000000E+00   0.00000000000000E+00  -1.43299908749349E-18  -4.12394321037928E-16  -4.13827320125421E-16
     -4.82228613100233E-15   0.00000000000000E+00   0.00000000000000E+00   0.00000000000000E+00   0.00000000000000E+00
     -2.29240333825237E-17  -1.16834424077643E-15  -1.19126827415896E-15  -1.90763677999462E-15
      1.57352000808211E-01
      1.25881600646569E-01   1.25881600646569E-01   0.00000000000000E+00   0.00000000000000E+00   2.00824587134987E-15
      5.30300810143372E-20   2.00829890143088E-15   6.91906703982564E-15   0.00000000000000E+00   0.00000000000000E+00
      0.00000000000000E+00   0.00000000000000E+00  -1.47473174939487E-18  -5.08680835438124E-16  -5.10155567187519E-16
     -5.01105044381079E-15   0.00000000000000E+00   0.00000000000000E+00   0.00000000000000E+00   0.00000000000000E+00
     -2.29802263560068E-17  -1.47516310788736E-15  -1.49814333424336E-15  -1.90801659601486E-15
      2.27215186190770E-01
      1.81772148952616E-01   1.81772148952616E-01   0.00000000000000E+00   0.00000000000000E+00   2.49829679475995E-15
      5.92447726063776E-19   2.49888924248602E-15   7.17589827302275E-15   0.00000000000000E+00   0.00000000000000E+00
      0.00000000000000E+00   0.00000000000000E+00  -1.48425797369821E-18  -6.40593325773772E-16  -6.42077583747470E-16
     -5.26736002610401E-15   0.00000000000000E+00   0.00000000000000E+00   0.00000000000000E+00   0.00000000000000E+00
     -2.29806583794723E-17  -1.83383100035907E-15  -1.85681165873855E-15  -1.90853824691874E-15
      3.23176152601792E-01
      2.58540922081434E-01   2.58540922081434E-01   0.00000000000000E+00   0.00000000000000E+00   3.13879680396165E-15
     -1.60573664023909E-19   3.13863623029762E-15   7.52371105650595E-15   0.00000000000000E+00   0.00000000000000E+00
      0.00000000000000E+00   0.00000000000000E+00  -1.48608653161588E-18  -8.51702815278879E-16  -8.53188901810495E-16
     -5.61445633900920E-15   0.00000000000000E+00   0.00000000000000E+00   0.00000000000000E+00   0.00000000000000E+00
     -2.29806777879759E-17  -2.26246665069915E-15  -2.28544732848713E-15  -1.90925471749674E-15
      4.23176152601792E-01
      3.38540922081434E-01   3.38540922081433E-01   0.00000000000000E+00   0.00000000000000E+00   3.80208595795036E-15
      3.31563586621293E-19   3.80241752153699E-15   7.88061418010093E-15   0.00000000000000E+00   0.00000000000000E+00
      0.00000000000000E+00   0.00000000000000E+00  -1.48703971948137E-18  -1.11516673523994E-15  -1.11665377495942E-15
     -5.97061291535667E-15   0.00000000000000E+00   0.00000000000000E+00   0.00000000000000E+00   0.00000000000000E+00
     -2.29807041135379E-17  -2.66278304246403E-15  -2.68576374657757E-15  -1.91000126474427E-15
      5.23176152601792E-01
      4.18540922081434E-01   4.18540922081434E-01   0.00000000000000E+00   0.00000000000000E+00   4.40213813336941E-15
      7.34562322487176E-19   4.40287269569190E-15   8.23186275866195E-15   0.00000000000000E+00   0.00000000000000E+00
      0.00000000000000E+00   0.00000000000000E+00  -1.48792360389327E-18  -1.34736337106552E-15  -1.34885129466942E-15
     -6.32111510393495E-15   0.00000000000000E+00   0.00000000000000E+00   0.00000000000000E+00   0.00000000000000E+00
     -2.29807291050152E-17  -3.03104067191747E-15  -3.05402140102248E-15  -1.91074765472706E-15
      6.23176152601792E-01
      4.98540922081434E-01   4.98540922081434E-01   0.00000000000000E+00   0.00000000000000E+00   4.89765501135260E-15
      6.19974950301778E-19   4.89827498630290E-15   8.57680402935761E-15   0.00000000000000E+00   0.00000000000000E+00
      0.00000000000000E+00   0.00000000000000E+00  -1.48875131098244E-18  -1.49802618579933E-15  -1.49951493711031E-15
     -6.66531023099494E-15   0.00000000000000E+00   0.00000000000000E+00   0.00000000000000E+00   0.00000000000000E+00
     -2.29807540998685E-17  -3.37577929509272E-15  -3.39876004919259E-15  -1.91149379836268E-15
      7.23176152601792E-01
      5.78540922081434E-01   5.78540922081434E-01   0.00000000000000E+00   0.00000000000000E+00   5.32393195344289E-15
     -2.54733209119468E-19   5.32367722023377E-15   8.91421515188585E-15   0.00000000000000E+00   0.00000000000000E+00
      0.00000000000000E+00   0.00000000000000E+00  -1.48953081823542E-18  -1.59772921655877E-15  -1.59921874737700E-15
     -7.00197553887695E-15   0.00000000000000E+00   0.00000000000000E+00   0.00000000000000E+00   0.00000000000000E+00
     -2.29807790906034E-17  -3.70147769376616E-15  -3.72445847285676E-15  -1.91223961300886E-15
      8.23176152601792E-01
      6.58540922081434E-01   6.58540922081434E-01   0.00000000000000E+00   0.00000000000000E+00   5.71089491346709E-15
     -1.75448361580363E-19   5.71071946510551E-15   9.24294718311311E-15   0.00000000000000E+00   0.00000000000000E+00
      0.00000000000000E+00   0.00000000000000E+00  -1.49027009252212E-18  -1.67441595304502E-15  -1.67590622313754E-15
     -7.32996215580060E-15   0.00000000000000E+00   0.00000000000000E+00   0.00000000000000E+00   0.00000000000000E+00
     -2.29808040741549E-17  -4.01183243789381E-15  -4.03481324196796E-15  -1.91298502731254E-15
      9.23176152601792E-01
      7.38540922081434E-01   7.38540922081433E-01   0.00000000000000E+00   0.00000000000000E+00   6.07297727924390E-15
      8.14148679015700E-19   6.07379142792292E-15   9.56277553404514E-15   0.00000000000000E+00   0.00000000000000E+00
      0.00000000000000E+00   0.00000000000000E+00  -1.49097542680024E-18  -1.74128669345914E-15  -1.74277766888594E-15
     -7.64904555645617E-15   0.00000000000000E+00   0.00000000000000E+00   0.00000000000000E+00   0.00000000000000E+00
     -2.29808290480657E-17  -4.30803292998890E-15  -4.33101375903696E-15  -1.91372997758900E-15
      1.00000000000000E+00
      8.00000000000000E-01   8.00000000000000E-01   0.00000000000000E+00   0.00000000000000E+00   6.33982346331330E-15
      1.46964078496899E-18   6.34129310409827E-15   9.80244986632775E-15   0.00000000000000E+00   0.00000000000000E+00
      0.00000000000000E+00   0.00000000000000E+00  -1.49150011969199E-18  -1.79070911094492E-15  -1.79220061106461E-15
     -7.88814794630418E-15   0.00000000000000E+00   0.00000000000000E+00   0.00000000000000E+00   0.00000000000000E+00
     -2.29808482258710E-17  -4.52611164480778E-15  -4.54909249303365E-15  -1.91430192002358E-15
}
