DF-ISE text

Info {
  version   = 1.0
  type      = xyplot
  datasets  = [
    "time"
    "Ntop OuterVoltage" "Ntop InnerVoltage" "Ntop QuasiFermiPotential" "Ntop DisplacementCurrent" "Ntop eCurrent"
    "Ntop hCurrent" "Ntop TotalCurrent" "Ntop Charge" "Ptop OuterVoltage" "Ptop InnerVoltage"
    "Ptop QuasiFermiPotential" "Ptop DisplacementCurrent" "Ptop eCurrent" "Ptop hCurrent" "Ptop TotalCurrent"
    "Ptop Charge" "Pbot OuterVoltage" "Pbot InnerVoltage" "Pbot QuasiFermiPotential" "Pbot DisplacementCurrent"
    "Pbot eCurrent" "Pbot hCurrent" "Pbot TotalCurrent" "Pbot Charge" ]
  functions = [
    Time
    OuterVoltage InnerVoltage QuasiFermiPotential DisplacementCurrent eCurrent
    hCurrent TotalCurrent Charge OuterVoltage InnerVoltage
    QuasiFermiPotential DisplacementCurrent eCurrent hCurrent TotalCurrent
    Charge OuterVoltage InnerVoltage QuasiFermiPotential DisplacementCurrent
    eCurrent hCurrent TotalCurrent Charge ]
}

Data {
      0.00000000000000E+00
      0.00000000000000E+00   0.00000000000000E+00   0.00000000000000E+00   0.00000000000000E+00   1.11249923982077E-22
     -2.57183819817777E-17  -2.57182707318537E-17   3.30279088958691E-15   0.00000000000000E+00   0.00000000000000E+00
      0.00000000000000E+00   0.00000000000000E+00  -1.11249927806266E-22  -1.15048079114825E-19  -1.15159329042632E-19
     -1.39594959433398E-15   0.00000000000000E+00   0.00000000000000E+00   0.00000000000000E+00   0.00000000000000E+00
      3.98996701790015E-30   2.58334300608923E-17   2.58334300608963E-17  -1.90684129525294E-15
      0.00000000000000E+00
      0.00000000000000E+00   0.00000000000000E+00   0.00000000000000E+00   0.00000000000000E+00  -1.20446206294263E-23
      2.38269703499860E-19   2.38257658879231E-19   3.30279088958691E-15   0.00000000000000E+00   0.00000000000000E+00
      0.00000000000000E+00   0.00000000000000E+00   1.20446298485225E-23   2.95999850866307E-20   2.96120297164792E-20
     -1.39594959433398E-15   0.00000000000000E+00   0.00000000000000E+00   0.00000000000000E+00   0.00000000000000E+00
     -3.98865908739093E-30  -2.67869688591721E-19  -2.67869688595710E-19  -1.90684129525294E-15
      1.00000000000000E-02
      8.00000000000000E-03   7.99999999999997E-03   0.00000000000000E+00   0.00000000000000E+00   2.20691747755545E-16
     -1.26420463075758E-18   2.19427543124788E-16   3.31332183963957E-15   0.00000000000000E+00   0.00000000000000E+00
      0.00000000000000E+00   0.00000000000000E+00  -5.23935191495539E-19  -2.84378478685269E-17  -2.89617830600225E-17
     -1.40640581362204E-15   0.00000000000000E+00   0.00000000000000E+00   0.00000000000000E+00   0.00000000000000E+00
     -6.88866472273443E-18  -1.83577095342031E-16  -1.90465760064765E-16  -1.90691602601753E-15
      2.37355555555556E-02
      1.89884444444444E-02   1.89884444444444E-02   0.00000000000000E+00   0.00000000000000E+00   4.72795983686878E-16
      2.20362665524525E-18   4.74999610342124E-16   3.32773335412959E-15   0.00000000000000E+00   0.00000000000000E+00
      0.00000000000000E+00   0.00000000000000E+00  -1.00633848609593E-18  -6.10286098122245E-17  -6.20349482983204E-17
     -1.42071469476624E-15   0.00000000000000E+00   0.00000000000000E+00   0.00000000000000E+00   0.00000000000000E+00
     -1.33874484111668E-17  -3.99577213632637E-16  -4.12964662043803E-16  -1.90701865936335E-15
      4.28523965432099E-02
      3.42819172345679E-02   3.42819172345679E-02   0.00000000000000E+00   0.00000000000000E+00   7.52330561822549E-16
     -9.93142473908932E-19   7.51337419348640E-16   3.34769205353509E-15   0.00000000000000E+00   0.00000000000000E+00
      0.00000000000000E+00   0.00000000000000E+00  -1.41784131338843E-18  -9.77832882269481E-17  -9.92011295403365E-17
     -1.44053057330790E-15   0.00000000000000E+00   0.00000000000000E+00   0.00000000000000E+00   0.00000000000000E+00
     -1.86652062369362E-17  -6.33471083571369E-16  -6.52136289808305E-16  -1.90716148022721E-15
      6.94587910111385E-02
      5.55670328089108E-02   5.55670328089109E-02   0.00000000000000E+00   0.00000000000000E+00   1.05166040443892E-15
      1.82374411993767E-18   1.05348414855886E-15   3.37528802039542E-15   0.00000000000000E+00   0.00000000000000E+00
      0.00000000000000E+00   0.00000000000000E+00  -1.70048627734703E-18  -1.36768856388645E-16  -1.38469342665992E-16
     -1.46792779867375E-15   0.00000000000000E+00   0.00000000000000E+00   0.00000000000000E+00   0.00000000000000E+00
     -2.18807328585541E-17  -8.93134073034315E-16  -9.15014805892869E-16  -1.90736022172166E-15
      1.06488979578391E-01
      8.51911836627130E-02   8.51911836627130E-02   0.00000000000000E+00   0.00000000000000E+00   1.37088303019928E-15
     -2.48140840518008E-19   1.37063488935876E-15   3.41336594279661E-15   0.00000000000000E+00   0.00000000000000E+00
      0.00000000000000E+00   0.00000000000000E+00  -1.84860194524920E-18  -1.77121352636590E-16  -1.78969954581839E-16
     -1.50572916279536E-15   0.00000000000000E+00   0.00000000000000E+00   0.00000000000000E+00   0.00000000000000E+00
     -2.29242448506052E-17  -1.16874068992631E-15  -1.19166493477692E-15  -1.90763678000125E-15
      1.58026773133214E-01
      1.26421418506571E-01   1.26421418506572E-01   0.00000000000000E+00   0.00000000000000E+00   1.72529897812804E-15
     -1.97275213269238E-19   1.72510170291477E-15   3.46577820733990E-15   0.00000000000000E+00   0.00000000000000E+00
      0.00000000000000E+00   0.00000000000000E+00  -1.90198090613812E-18  -2.21477634776502E-16  -2.23379615682641E-16
     -1.55775657276025E-15   0.00000000000000E+00   0.00000000000000E+00   0.00000000000000E+00   0.00000000000000E+00
     -2.29802278606113E-17  -1.47874185937152E-15  -1.50172208723213E-15  -1.90802163457965E-15
      2.28816795791517E-01
      1.83053436633213E-01   1.83053436633213E-01   0.00000000000000E+00   0.00000000000000E+00   2.13701155348065E-15
      7.78066737196160E-19   2.13778962021784E-15   3.53678074697279E-15   0.00000000000000E+00   0.00000000000000E+00
      0.00000000000000E+00   0.00000000000000E+00  -1.91358051780672E-18  -2.70931842694985E-16  -2.72845423212792E-16
     -1.62823054158726E-15   0.00000000000000E+00   0.00000000000000E+00   0.00000000000000E+00   0.00000000000000E+00
     -2.29806588405788E-17  -1.84196353816447E-15  -1.86494419700505E-15  -1.90855020538553E-15
      3.26050824691732E-01
      2.60840659753386E-01   2.60840659753386E-01   0.00000000000000E+00   0.00000000000000E+00   2.63370982069999E-15
     -4.38773722121310E-19   2.63327104697787E-15   3.63268061350433E-15   0.00000000000000E+00   0.00000000000000E+00
      0.00000000000000E+00   0.00000000000000E+00  -1.91499294586916E-18  -3.33908121598746E-16  -3.35823114544616E-16
     -1.72340443376864E-15   0.00000000000000E+00   0.00000000000000E+00   0.00000000000000E+00   0.00000000000000E+00
     -2.29806785440039E-17  -2.27446725388924E-15  -2.29744793243325E-15  -1.90927617973569E-15
      4.26050824691732E-01
      3.40840659753386E-01   3.40840659753386E-01   0.00000000000000E+00   0.00000000000000E+00   3.09774507783695E-15
      3.24896745347399E-19   3.09806997458230E-15   3.72959909774339E-15   0.00000000000000E+00   0.00000000000000E+00
      0.00000000000000E+00   0.00000000000000E+00  -1.91524350229862E-18  -3.99172569738138E-16  -4.01087813240437E-16
     -1.81957637403572E-15   0.00000000000000E+00   0.00000000000000E+00   0.00000000000000E+00   0.00000000000000E+00
     -2.29807048320009E-17  -2.67400145650987E-15  -2.69698216134187E-15  -1.91002272370767E-15
      5.26050824691732E-01
      4.20840659753386E-01   4.20840659753385E-01   0.00000000000000E+00   0.00000000000000E+00   3.52910506423321E-15
      4.70929180210995E-19   3.52957599341342E-15   3.82497004518228E-15   0.00000000000000E+00   0.00000000000000E+00
      0.00000000000000E+00   0.00000000000000E+00  -1.91544598724956E-18  -4.63406475636961E-16  -4.65321921624210E-16
     -1.91420093723766E-15   0.00000000000000E+00   0.00000000000000E+00   0.00000000000000E+00   0.00000000000000E+00
     -2.29807298235542E-17  -3.04127334196566E-15  -3.06425407178921E-15  -1.91076910794462E-15
      6.26050824691732E-01
      5.00840659753386E-01   5.00840659753386E-01   0.00000000000000E+00   0.00000000000000E+00   3.93168436796432E-15
      3.05228426765048E-21   3.93168742024859E-15   3.91889183903914E-15   0.00000000000000E+00   0.00000000000000E+00
      0.00000000000000E+00   0.00000000000000E+00  -1.91563324883596E-18  -5.21689843742300E-16  -5.23605476991136E-16
     -2.00737659559436E-15   0.00000000000000E+00   0.00000000000000E+00   0.00000000000000E+00   0.00000000000000E+00
     -2.29807548183586E-17  -3.38510118843910E-15  -3.40808194325746E-15  -1.91151524344477E-15
      7.26050824691732E-01
      5.80840659753386E-01   5.80840659753386E-01   0.00000000000000E+00   0.00000000000000E+00   4.31183327791697E-15
     -2.88955316068846E-20   4.31180438238537E-15   4.01138147027664E-15   0.00000000000000E+00   0.00000000000000E+00
      0.00000000000000E+00   0.00000000000000E+00  -1.91580923523193E-18  -5.75754619600281E-16  -5.77670428835513E-16
     -2.09912042223862E-15   0.00000000000000E+00   0.00000000000000E+00   0.00000000000000E+00   0.00000000000000E+00
     -2.29807798089415E-17  -3.71115317374091E-15  -3.73413395354985E-15  -1.91226104803802E-15
      8.26050824691732E-01
      6.60840659753386E-01   6.60840659753386E-01   0.00000000000000E+00   0.00000000000000E+00   4.67448406196459E-15
      8.75235371769548E-19   4.67535929733636E-15   4.10237770920539E-15   0.00000000000000E+00   0.00000000000000E+00
      0.00000000000000E+00   0.00000000000000E+00  -1.91597404016072E-18  -6.28579579507936E-16  -6.30495553548097E-16
     -2.18937125811325E-15   0.00000000000000E+00   0.00000000000000E+00   0.00000000000000E+00   0.00000000000000E+00
     -2.29808047922899E-17  -4.02188293899597E-15  -4.04486374378826E-15  -1.91300645109213E-15
      9.26050824691732E-01
      7.40840659753386E-01   7.40840659753386E-01   0.00000000000000E+00   0.00000000000000E+00   5.02253583681667E-15
      7.54772908812495E-19   5.02329060972549E-15   4.19175365224615E-15   0.00000000000000E+00   0.00000000000000E+00
      0.00000000000000E+00   0.00000000000000E+00  -1.91612894802876E-18  -6.81842456178632E-16  -6.83758585126661E-16
     -2.27800226216760E-15   0.00000000000000E+00   0.00000000000000E+00   0.00000000000000E+00   0.00000000000000E+00
     -2.29808297659886E-17  -4.31655119483284E-15  -4.33953202459883E-15  -1.91375139007856E-15
      1.00000000000000E+00
      8.00000000000000E-01   8.00000000000000E-01   0.00000000000000E+00   0.00000000000000E+00   5.27227687933491E-15
      2.02274882892791E-19   5.27247915421780E-15   4.25671792716673E-15   0.00000000000000E+00   0.00000000000000E+00
      0.00000000000000E+00   0.00000000000000E+00  -1.91623791256583E-18  -7.22359742797911E-16  -7.24275980710477E-16
     -2.34241599716395E-15   0.00000000000000E+00   0.00000000000000E+00   0.00000000000000E+00   0.00000000000000E+00
     -2.29808482262056E-17  -4.52522232528111E-15  -4.54820317350731E-15  -1.91430193000279E-15
}
