DF-ISE text

Info {
  version   = 1.0
  type      = xyplot
  datasets  = [
    "time"
    "Ntop OuterVoltage" "Ntop InnerVoltage" "Ntop QuasiFermiPotential" "Ntop DisplacementCurrent" "Ntop eCurrent"
    "Ntop hCurrent" "Ntop TotalCurrent" "Ntop Charge" "Ptop OuterVoltage" "Ptop InnerVoltage"
    "Ptop QuasiFermiPotential" "Ptop DisplacementCurrent" "Ptop eCurrent" "Ptop hCurrent" "Ptop TotalCurrent"
    "Ptop Charge" "Pbot OuterVoltage" "Pbot InnerVoltage" "Pbot QuasiFermiPotential" "Pbot DisplacementCurrent"
    "Pbot eCurrent" "Pbot hCurrent" "Pbot TotalCurrent" "Pbot Charge" ]
  functions = [
    Time
    OuterVoltage InnerVoltage QuasiFermiPotential DisplacementCurrent eCurrent
    hCurrent TotalCurrent Charge OuterVoltage InnerVoltage
    QuasiFermiPotential DisplacementCurrent eCurrent hCurrent TotalCurrent
    Charge OuterVoltage InnerVoltage QuasiFermiPotential DisplacementCurrent
    eCurrent hCurrent TotalCurrent Charge ]
}

Data {
      0.00000000000000E+00
      0.00000000000000E+00   0.00000000000000E+00   0.00000000000000E+00   0.00000000000000E+00  -6.78526964739161E-23
     -2.60151337948690E-17  -2.60152016475655E-17   6.32724820948915E-15   0.00000000000000E+00   0.00000000000000E+00
      0.00000000000000E+00   0.00000000000000E+00   6.78526711671741E-23   2.35277023805938E-19   2.35344876477105E-19
     -4.42040691434333E-15   0.00000000000000E+00   0.00000000000000E+00   0.00000000000000E+00   0.00000000000000E+00
      2.58098377815814E-29   2.57798567710626E-17   2.57798567710884E-17  -1.90684129514576E-15
      0.00000000000000E+00
      0.00000000000000E+00   0.00000000000000E+00   0.00000000000000E+00   0.00000000000000E+00   9.41926157323148E-23
     -2.30754701676577E-18  -2.30745282415003E-18   6.32724820959573E-15   0.00000000000000E+00   0.00000000000000E+00
      0.00000000000000E+00   0.00000000000000E+00  -9.41926101247632E-23  -6.86704763777641E-21  -6.96124024790118E-21
     -4.42040691434337E-15   0.00000000000000E+00   0.00000000000000E+00   0.00000000000000E+00   0.00000000000000E+00
     -2.58050237528708E-30   2.31441406440052E-18   2.31441406439794E-18  -1.90684129525234E-15
      1.00000000000000E-01
      8.00000000000000E-02   8.00000000000000E-02   0.00000000000000E+00   0.00000000000000E+00   1.54733767936203E-15
      4.98806588887136E-19   1.54783648595091E-15   6.70565133006655E-15   0.00000000000000E+00   0.00000000000000E+00
      0.00000000000000E+00   0.00000000000000E+00  -1.42110527170630E-18  -3.99100000319838E-16  -4.00521105591544E-16
     -4.79806300976718E-15   0.00000000000000E+00   0.00000000000000E+00   0.00000000000000E+00   0.00000000000000E+00
     -2.28697587532684E-17  -1.12444562160610E-15  -1.14731538035937E-15  -1.90758832029937E-15
      2.00000000000000E-01
      1.60000000000000E-01   1.60000000000000E-01   0.00000000000000E+00   0.00000000000000E+00   2.31204242617014E-15
      2.19889421919916E-19   2.31226231559205E-15   7.07623565791720E-15   0.00000000000000E+00   0.00000000000000E+00
      0.00000000000000E+00   0.00000000000000E+00  -1.48255431997896E-18  -5.87946290026325E-16  -5.89428844346304E-16
     -5.16790061586709E-15   0.00000000000000E+00   0.00000000000000E+00   0.00000000000000E+00   0.00000000000000E+00
     -2.29805923662903E-17  -1.69985287887946E-15  -1.72283347124575E-15  -1.90833504205010E-15
      3.00000000000000E-01
      2.40000000000000E-01   2.40000000000000E-01   0.00000000000000E+00   0.00000000000000E+00   2.98461510095551E-15
     -6.54281915623103E-20   2.98454967276395E-15   7.44019987256365E-15   0.00000000000000E+00   0.00000000000000E+00
      0.00000000000000E+00   0.00000000000000E+00  -1.48582353061311E-18  -7.96300006542832E-16  -7.97785830073445E-16
     -5.53111818960662E-15   0.00000000000000E+00   0.00000000000000E+00   0.00000000000000E+00   0.00000000000000E+00
     -2.29806739050939E-17  -2.16378316878542E-15  -2.18676384269051E-15  -1.90908168295704E-15
      4.00000000000000E-01
      3.20000000000000E-01   3.20000000000000E-01   0.00000000000000E+00   0.00000000000000E+00   3.65050828296201E-15
     -8.55947272368924E-19   3.64965233568964E-15   7.79839077772758E-15   0.00000000000000E+00   0.00000000000000E+00
      0.00000000000000E+00   0.00000000000000E+00  -1.48682682198920E-18  -1.05289914213040E-15  -1.05438596895239E-15
     -5.88856252312799E-15   0.00000000000000E+00   0.00000000000000E+00   0.00000000000000E+00   0.00000000000000E+00
     -2.29806983314429E-17  -2.57228566840582E-15  -2.59526636673726E-15  -1.90982825459955E-15
      5.00000000000000E-01
      4.00000000000000E-01   4.00000000000000E-01   0.00000000000000E+00   0.00000000000000E+00   4.27276705699125E-15
     -8.68134021705587E-19   4.27189892296955E-15   8.15098383909270E-15   0.00000000000000E+00   0.00000000000000E+00
      0.00000000000000E+00   0.00000000000000E+00  -1.48772361248052E-18  -1.30099400940275E-15  -1.30248173301523E-15
     -6.24040915014416E-15   0.00000000000000E+00   0.00000000000000E+00   0.00000000000000E+00   0.00000000000000E+00
     -2.29807233121624E-17  -2.94643646664216E-15  -2.96941718995432E-15  -1.91057468894852E-15
      6.00000000000000E-01
      4.80000000000000E-01   4.80000000000000E-01   0.00000000000000E+00   0.00000000000000E+00   4.79050798248894E-15
      2.63466823606412E-18   4.79314265072501E-15   8.49747911827860E-15   0.00000000000000E+00   0.00000000000000E+00
      0.00000000000000E+00   0.00000000000000E+00  -1.48856427372686E-18  -1.46907639823554E-15  -1.47056496250927E-15
     -6.58615822085661E-15   0.00000000000000E+00   0.00000000000000E+00   0.00000000000000E+00   0.00000000000000E+00
     -2.29807483072470E-17  -3.29959693990848E-15  -3.32257768821573E-15  -1.91132089742205E-15
      7.00000000000000E-01
      5.60000000000000E-01   5.60000000000000E-01   0.00000000000000E+00   0.00000000000000E+00   5.22942612834598E-15
      3.75191062226998E-19   5.22980131940821E-15   8.83675871702698E-15   0.00000000000000E+00   0.00000000000000E+00
      0.00000000000000E+00   0.00000000000000E+00  -1.48935405321192E-18  -1.57736788031631E-15  -1.57885723436952E-15
     -6.92469192195211E-15   0.00000000000000E+00   0.00000000000000E+00   0.00000000000000E+00   0.00000000000000E+00
     -2.29807732992565E-17  -3.62796331173944E-15  -3.65094408503869E-15  -1.91206679507490E-15
      8.00000000000000E-01
      6.40000000000000E-01   6.40000000000000E-01   0.00000000000000E+00   0.00000000000000E+00   5.62377982855047E-15
      3.69712924516369E-19   5.62414954147498E-15   9.16755879100495E-15   0.00000000000000E+00   0.00000000000000E+00
      0.00000000000000E+00   0.00000000000000E+00  -1.49010205926857E-18  -1.65786755558383E-15  -1.65935765764310E-15
     -7.25474648301782E-15   0.00000000000000E+00   0.00000000000000E+00   0.00000000000000E+00   0.00000000000000E+00
     -2.29807982847002E-17  -3.94181108554718E-15  -3.96479188383188E-15  -1.91281230798714E-15
      9.00000000000000E-01
      7.20000000000000E-01   7.20000000000000E-01   0.00000000000000E+00   0.00000000000000E+00   5.99078842358436E-15
      8.88236414881141E-19   5.99167665999925E-15   9.48943451370899E-15   0.00000000000000E+00   0.00000000000000E+00
      0.00000000000000E+00   0.00000000000000E+00  -1.49081439381707E-18  -1.72623615115974E-15  -1.72772696555356E-15
     -7.57587714229177E-15   0.00000000000000E+00   0.00000000000000E+00   0.00000000000000E+00   0.00000000000000E+00
     -2.29808232610582E-17  -4.24096887118463E-15  -4.26394969444569E-15  -1.91355737141726E-15
      1.00000000000000E+00
      8.00000000000000E-01   8.00000000000000E-01   0.00000000000000E+00   0.00000000000000E+00   6.33982346283168E-15
      1.21727437285515E-18   6.34104073720453E-15   9.80244986632770E-15   0.00000000000000E+00   0.00000000000000E+00
      0.00000000000000E+00   0.00000000000000E+00  -1.49149963799915E-18  -1.79070320563797E-15  -1.79219470527597E-15
     -7.88814794630414E-15   0.00000000000000E+00   0.00000000000000E+00   0.00000000000000E+00   0.00000000000000E+00
     -2.29808482258709E-17  -4.52586518370269E-15  -4.54884603192856E-15  -1.91430192002358E-15
      0.00000000000000E+00
      8.00000000000000E-01   8.00000000000000E-01   0.00000000000000E+00   0.00000000000000E+00   6.33982346337773E-15
      1.30226467570435E-19   6.33995368984530E-15   9.80244986632775E-15   0.00000000000000E+00   0.00000000000000E+00
      0.00000000000000E+00   0.00000000000000E+00  -1.49150018412481E-18  -1.79070903697186E-15  -1.79220053715599E-15
     -7.88814794630418E-15   0.00000000000000E+00   0.00000000000000E+00   0.00000000000000E+00   0.00000000000000E+00
     -2.29808482258710E-17  -4.52477230446343E-15  -4.54775315268930E-15  -1.91430192002358E-15
      1.00000000000000E-02
      8.00000000000000E-01   8.00000000000000E-01   0.00000000000000E+00   0.00000000000000E+00   7.88584323995712E-15
     -2.05774826684800E-18   7.88378549169027E-15   9.80707621609604E-15   0.00000000000000E+00   0.00000000000000E+00
      0.00000000000000E+00   0.00000000000000E+00  -1.49150017924123E-18  -1.78475889846884E-15  -1.78625039864808E-15
     -7.88813199058186E-15  -5.00000000000000E-01  -5.00000000000000E-01   0.00000000000000E+00   0.00000000000000E+00
     -2.29810088738856E-17  -6.07455408416831E-15  -6.09753509304219E-15  -1.91894422551422E-15
      2.00000000000000E-02
      8.00000000000000E-01   8.00000000000000E-01   0.00000000000000E+00   0.00000000000000E+00   9.16880516340930E-15
      7.13831924646632E-19   9.16951899533395E-15   9.81163003028483E-15   0.00000000000000E+00   0.00000000000000E+00
      0.00000000000000E+00   0.00000000000000E+00  -1.49150015748903E-18  -1.78057887954491E-15  -1.78207037970240E-15
     -7.88806004025658E-15  -1.00000000000000E+00  -1.00000000000000E+00   0.00000000000000E+00   0.00000000000000E+00
     -2.29811594039732E-17  -7.36446745622754E-15  -7.38744861563152E-15  -1.92356999002824E-15
      3.00000000000000E-02
      8.00000000000000E-01   8.00000000000000E-01   0.00000000000000E+00   0.00000000000000E+00   1.02756920193986E-14
      2.74750436637884E-18   1.02784395237650E-14   9.81598554983653E-15   0.00000000000000E+00   0.00000000000000E+00
      0.00000000000000E+00   0.00000000000000E+00  -1.49150007799153E-18  -1.77808307062033E-15  -1.77957457069832E-15
     -7.88779470236439E-15  -1.50000000000000E+00  -1.50000000000000E+00   0.00000000000000E+00   0.00000000000000E+00
     -2.29813148098394E-17  -8.47588363825685E-15  -8.49886495306669E-15  -1.92819084747216E-15
      4.00000000000000E-02
      8.00000000000000E-01   8.00000000000000E-01   0.00000000000000E+00   0.00000000000000E+00   1.12173484078952E-14
     -2.84114283113223E-18   1.12145072650640E-14   9.81983997400112E-15   0.00000000000000E+00   0.00000000000000E+00
      0.00000000000000E+00   0.00000000000000E+00  -1.49149984004599E-18  -1.77771829112205E-15  -1.77920979096210E-15
     -7.88699905120224E-15  -2.00000000000000E+00  -2.00000000000000E+00   0.00000000000000E+00   0.00000000000000E+00
     -2.29814713584477E-17  -9.41231600274347E-15  -9.43529747410192E-15  -1.93284092279888E-15
      5.00000000000000E-02
      8.00000000000000E-01   8.00000000000000E-01   0.00000000000000E+00   0.00000000000000E+00   1.19530841666689E-14
     -6.04841544777886E-19   1.19524793251241E-14   9.82267436566524E-15   0.00000000000000E+00   0.00000000000000E+00
      0.00000000000000E+00   0.00000000000000E+00  -1.49149926934415E-18  -1.78054645407371E-15  -1.78203795334305E-15
     -7.88508602209205E-15  -2.50000000000000E+00  -2.50000000000000E+00   0.00000000000000E+00   0.00000000000000E+00
     -2.29816313436376E-17  -1.01474597404375E-14  -1.01704413717811E-14  -1.93758834357322E-15
      6.00000000000000E-02
      8.00000000000000E-01   8.00000000000000E-01   0.00000000000000E+00   0.00000000000000E+00   1.25255606228159E-14
      3.16737467018747E-18   1.25287279974861E-14   9.82379348398703E-15   0.00000000000000E+00   0.00000000000000E+00
      0.00000000000000E+00   0.00000000000000E+00  -1.49149815548249E-18  -1.78836300527303E-15  -1.78985450342851E-15
     -7.88130945195605E-15  -3.00000000000000E+00  -3.00000000000000E+00   0.00000000000000E+00   0.00000000000000E+00
     -2.29817964890308E-17  -1.07158916975686E-14  -1.07388734940576E-14  -1.94248403203098E-15
      7.00000000000000E-02
      8.00000000000000E-01   8.00000000000000E-01   0.00000000000000E+00   0.00000000000000E+00   1.30093093925198E-14
      7.39382830826872E-18   1.30167032208281E-14   9.82272692214611E-15   0.00000000000000E+00   0.00000000000000E+00
      0.00000000000000E+00   0.00000000000000E+00  -1.49149638387849E-18  -1.80346088385306E-15  -1.80495238023694E-15
     -7.87516611518789E-15  -3.50000000000000E+00  -3.50000000000000E+00   0.00000000000000E+00   0.00000000000000E+00
     -2.29819679143135E-17  -1.11887688726769E-14  -1.12117508405912E-14  -1.94756080695826E-15
      8.00000000000000E-02
      8.00000000000000E-01   8.00000000000000E-01   0.00000000000000E+00   0.00000000000000E+00   1.33889929156918E-14
      6.08489819013479E-19   1.33896014055109E-14   9.81962669546253E-15   0.00000000000000E+00   0.00000000000000E+00
      0.00000000000000E+00   0.00000000000000E+00  -1.49149404541790E-18  -1.82791299153269E-15  -1.82940448557811E-15
     -7.86678112480776E-15  -4.00000000000000E+00  -4.00000000000000E+00   0.00000000000000E+00   0.00000000000000E+00
     -2.29821465442612E-17  -1.15372147733885E-14  -1.15601969199327E-14  -1.95284557065482E-15
      9.00000000000000E-02
      8.00000000000000E-01   8.00000000000000E-01   0.00000000000000E+00   0.00000000000000E+00   1.36827747784370E-14
      6.36868544412014E-18   1.36891434638812E-14   9.81502173790689E-15   0.00000000000000E+00   0.00000000000000E+00
      0.00000000000000E+00   0.00000000000000E+00  -1.49149132943549E-18  -1.86045210197570E-15  -1.86194359330513E-15
     -7.85666357855045E-15  -4.50000000000000E+00  -4.50000000000000E+00   0.00000000000000E+00   0.00000000000000E+00
     -2.29823330689099E-17  -1.18042175375071E-14  -1.18271998705761E-14  -1.95835815935644E-15
      1.00000000000000E-01
      8.00000000000000E-01   8.00000000000000E-01   0.00000000000000E+00   0.00000000000000E+00   1.39027318269279E-14
      3.32444982070718E-18   1.39060562767486E-14   9.80937091065565E-15   0.00000000000000E+00   0.00000000000000E+00
      0.00000000000000E+00   0.00000000000000E+00  -1.49148837771873E-18  -1.89250198878905E-15  -1.89399347716676E-15
     -7.84526138521573E-15  -5.00000000000000E+00  -5.00000000000000E+00   0.00000000000000E+00   0.00000000000000E+00
     -2.29825278808516E-17  -1.19890802717010E-14  -1.20120627995818E-14  -1.96410952543990E-15
      1.10000000000000E-01
      8.00000000000000E-01   8.00000000000000E-01   0.00000000000000E+00   0.00000000000000E+00   1.40587604877824E-14
     -2.96752696596774E-18   1.40557929608164E-14   9.80295178096196E-15   0.00000000000000E+00   0.00000000000000E+00
      0.00000000000000E+00   0.00000000000000E+00  -1.49148526869515E-18  -1.91388586730606E-15  -1.91537735257475E-15
     -7.83284783576542E-15  -5.50000000000000E+00  -5.50000000000000E+00   0.00000000000000E+00   0.00000000000000E+00
     -2.29827311486487E-17  -1.21174328770930E-14  -1.21404156082417E-14  -1.97010394519650E-15
      1.20000000000000E-01
      8.00000000000000E-01   8.00000000000000E-01   0.00000000000000E+00   0.00000000000000E+00   1.41683538588074E-14
      1.36799153239566E-17   1.41820337741313E-14   9.79591922220061E-15   0.00000000000000E+00   0.00000000000000E+00
      0.00000000000000E+00   0.00000000000000E+00  -1.49148204198687E-18  -1.92383837167890E-15  -1.92532985372088E-15
     -7.81957717342882E-15  -6.00000000000000E+00  -6.00000000000000E+00   0.00000000000000E+00   0.00000000000000E+00
     -2.29829429185702E-17  -1.22337209774919E-14  -1.22567039204104E-14  -1.97634204877182E-15
      1.30000000000000E-01
      8.00000000000000E-01   8.00000000000000E-01   0.00000000000000E+00   0.00000000000000E+00   1.42495894363226E-14
      6.47010099398903E-18   1.42560595373166E-14   9.78836172410770E-15   0.00000000000000E+00   0.00000000000000E+00
      0.00000000000000E+00   0.00000000000000E+00  -1.49147872088447E-18  -1.92655693775272E-15  -1.92804841647361E-15
     -7.80553905216290E-15  -6.50000000000000E+00  -6.50000000000000E+00   0.00000000000000E+00   0.00000000000000E+00
     -2.29831631768781E-17  -1.23050279576661E-14  -1.23280111208429E-14  -1.98282267194477E-15
      1.40000000000000E-01
      8.00000000000000E-01   8.00000000000000E-01   0.00000000000000E+00   0.00000000000000E+00   1.43137647036113E-14
      7.49093599676585E-18   1.43212556396080E-14   9.78033164058404E-15   0.00000000000000E+00   0.00000000000000E+00
      0.00000000000000E+00   0.00000000000000E+00  -1.49147531723982E-18  -1.92516044442467E-15  -1.92665191974191E-15
     -7.79078787353003E-15  -7.00000000000000E+00  -7.00000000000000E+00   0.00000000000000E+00   0.00000000000000E+00
     -2.29833918804882E-17  -1.23716203279857E-14  -1.23946037198661E-14  -1.98954376705405E-15
      1.50000000000000E-01
      8.00000000000000E-01   8.00000000000000E-01   0.00000000000000E+00   0.00000000000000E+00   1.43667228286018E-14
     -4.37673044369203E-18   1.43623460981581E-14   9.77185969009079E-15   0.00000000000000E+00   0.00000000000000E+00
      0.00000000000000E+00   0.00000000000000E+00  -1.49147184172493E-18  -1.92130182714194E-15  -1.92279329898366E-15
     -7.77535685500676E-15  -7.50000000000000E+00  -7.50000000000000E+00   0.00000000000000E+00   0.00000000000000E+00
     -2.29836289714945E-17  -1.24165691702029E-14  -1.24395527991744E-14  -1.99650283508405E-15
      1.60000000000000E-01
      8.00000000000000E-01   8.00000000000000E-01   0.00000000000000E+00   0.00000000000000E+00   1.44114903106951E-14
     -3.73866397481227E-18   1.44077516467203E-14   9.76296168213238E-15   0.00000000000000E+00   0.00000000000000E+00
      0.00000000000000E+00   0.00000000000000E+00  -1.49146829916617E-18  -1.91574742097406E-15  -1.91723888927322E-15
     -7.75926455135745E-15  -8.00000000000000E+00  -8.00000000000000E+00   0.00000000000000E+00   0.00000000000000E+00
     -2.29838743840634E-17  -1.24675288830630E-14  -1.24905127574470E-14  -2.00369713077496E-15
      1.70000000000000E-01
      8.00000000000000E-01   8.00000000000000E-01   0.00000000000000E+00   0.00000000000000E+00   1.44498781731898E-14
     -7.73169359076155E-18   1.44421464795990E-14   9.75364117059895E-15   0.00000000000000E+00   0.00000000000000E+00
      0.00000000000000E+00   0.00000000000000E+00  -1.49146469442738E-18  -1.90887936575742E-15  -1.91037083045185E-15
     -7.74251742101956E-15  -8.50000000000000E+00  -8.50000000000000E+00   0.00000000000000E+00   0.00000000000000E+00
     -2.29841280473148E-17  -1.25087915210999E-14  -1.25317756491472E-14  -2.01112374957939E-15
      1.80000000000000E-01
      8.00000000000000E-01   8.00000000000000E-01   0.00000000000000E+00   0.00000000000000E+00   1.44831164359443E-14
     -1.43001034587806E-17   1.44688163324855E-14   9.74388941380440E-15   0.00000000000000E+00   0.00000000000000E+00
      0.00000000000000E+00   0.00000000000000E+00  -1.49146103031876E-18  -1.90084318483666E-15  -1.90233464586698E-15
     -7.72510977759173E-15  -9.00000000000000E+00  -9.00000000000000E+00   0.00000000000000E+00   0.00000000000000E+00
     -2.29843898855592E-17  -1.25434972967330E-14  -1.25664816866186E-14  -2.01877963621268E-15
      1.90000000000000E-01
      8.00000000000000E-01   8.00000000000000E-01   0.00000000000000E+00   0.00000000000000E+00   1.45121892221741E-14
     -1.93810620844328E-18   1.45102511159657E-14   9.73368293237968E-15   0.00000000000000E+00   0.00000000000000E+00
      0.00000000000000E+00   0.00000000000000E+00  -1.49145730910042E-18  -1.89174647189533E-15  -1.89323792920443E-15
     -7.70702140769218E-15  -9.50000000000000E+00  -9.50000000000000E+00   0.00000000000000E+00   0.00000000000000E+00
     -2.29846598161756E-17  -1.25940285269450E-14  -1.26170131867612E-14  -2.02666152468752E-15
      2.00000000000000E-01
      8.00000000000000E-01   8.00000000000000E-01   0.00000000000000E+00   0.00000000000000E+00   1.45380882842857E-14
     -8.56258563409302E-18   1.45295256986516E-14   9.72297863461867E-15   0.00000000000000E+00   0.00000000000000E+00
      0.00000000000000E+00   0.00000000000000E+00  -1.49145353060569E-18  -1.88149088560493E-15  -1.88298233913554E-15
     -7.68821282114401E-15  -1.00000000000000E+01  -1.00000000000000E+01   0.00000000000000E+00   0.00000000000000E+00
     -2.29849377452498E-17  -1.26235584217708E-14  -1.26465433595160E-14  -2.03476581347467E-15
      2.10000000000000E-01
      8.00000000000000E-01   8.00000000000000E-01   0.00000000000000E+00   0.00000000000000E+00   1.45618497989294E-14
     -4.48785736595065E-18   1.45573619415634E-14   9.71170752136127E-15   0.00000000000000E+00   0.00000000000000E+00
      0.00000000000000E+00   0.00000000000000E+00  -1.49144969503766E-18  -1.86961776748381E-15  -1.87110921717884E-15
     -7.66861911059334E-15  -1.05000000000000E+01  -1.05000000000000E+01   0.00000000000000E+00   0.00000000000000E+00
     -2.29852235621430E-17  -1.26632675008224E-14  -1.26862527243846E-14  -2.04308841076796E-15
      2.20000000000000E-01
      8.00000000000000E-01   8.00000000000000E-01   0.00000000000000E+00   0.00000000000000E+00   1.45842728112176E-14
      1.62073766894542E-17   1.46004801879070E-14   9.69977344465639E-15   0.00000000000000E+00   0.00000000000000E+00
      0.00000000000000E+00   0.00000000000000E+00  -1.49144579770556E-18  -1.85407242908112E-15  -1.85556387487883E-15
     -7.64814871300041E-15  -1.10000000000000E+01  -1.10000000000000E+01   0.00000000000000E+00   0.00000000000000E+00
     -2.29855171392368E-17  -1.27219307958890E-14  -1.27449163130282E-14  -2.05162473165598E-15
      2.30000000000000E-01
      8.00000000000000E-01   8.00000000000000E-01   0.00000000000000E+00   0.00000000000000E+00   1.46059108012195E-14
      1.24478147556228E-17   1.46183586159751E-14   9.68707887995966E-15   0.00000000000000E+00   0.00000000000000E+00
      0.00000000000000E+00   0.00000000000000E+00  -1.49144183748844E-18  -1.82728040987212E-15  -1.82877185170961E-15
     -7.62670845373678E-15  -1.15000000000000E+01  -1.15000000000000E+01   0.00000000000000E+00   0.00000000000000E+00
     -2.29858183568660E-17  -1.27666009459087E-14  -1.27895867642655E-14  -2.06037042622286E-15
      2.40000000000000E-01
      8.00000000000000E-01   8.00000000000000E-01   0.00000000000000E+00   0.00000000000000E+00   1.46270273965692E-14
     -7.22905877539486E-18   1.46197983377938E-14   9.67361010229453E-15   0.00000000000000E+00   0.00000000000000E+00
      0.00000000000000E+00   0.00000000000000E+00  -1.49143781932531E-18  -1.76208408218574E-15  -1.76357552000506E-15
     -7.60428646487711E-15  -1.20000000000000E+01  -1.20000000000000E+01   0.00000000000000E+00   0.00000000000000E+00
     -2.29861271812708E-17  -1.28332366906074E-14  -1.28562228177887E-14  -2.06932363741738E-15
      2.50000000000000E-01
      8.00000000000000E-01   8.00000000000000E-01   0.00000000000000E+00   0.00000000000000E+00   1.46474189922261E-14
     -3.73380449378808E-18   1.46436851877323E-14   9.65953466073697E-15   0.00000000000000E+00   0.00000000000000E+00
      0.00000000000000E+00   0.00000000000000E+00  -1.49143375819220E-18  -1.56363832931843E-15  -1.56512976307662E-15
     -7.58104721607935E-15  -1.25000000000000E+01  -1.25000000000000E+01   0.00000000000000E+00   0.00000000000000E+00
     -2.29864437497017E-17  -1.30555689809060E-14  -1.30785554246557E-14  -2.07848744465764E-15
      2.60000000000000E-01
      8.00000000000000E-01   8.00000000000000E-01   0.00000000000000E+00   0.00000000000000E+00   1.46665132876269E-14
     -2.42802702919314E-17   1.46422330173349E-14   9.64514822198585E-15   0.00000000000000E+00   0.00000000000000E+00
      0.00000000000000E+00   0.00000000000000E+00  -1.49142967413220E-18  -9.11527962694361E-16  -9.13019392368493E-16
     -7.55727994697535E-15  -1.30000000000000E+01  -1.30000000000000E+01   0.00000000000000E+00   0.00000000000000E+00
     -2.29867683167134E-17  -1.37062268566497E-14  -1.37292136249664E-14  -2.08786827501053E-15
      2.70000000000000E-01
      8.00000000000000E-01   8.00000000000000E-01   0.00000000000000E+00   0.00000000000000E+00   1.46836830909527E-14
     -3.07845466178038E-17   1.46528985443349E-14   9.63070794329592E-15   0.00000000000000E+00   0.00000000000000E+00
      0.00000000000000E+00   0.00000000000000E+00  -1.49142558344564E-18   1.23721744769302E-15   1.23572602210958E-15
     -7.53323646310004E-15  -1.35000000000000E+01  -1.35000000000000E+01   0.00000000000000E+00   0.00000000000000E+00
     -2.29871011017382E-17  -1.58656374653427E-14  -1.58886245664445E-14  -2.09747148019590E-15
      2.80000000000000E-01
      8.00000000000000E-01   8.00000000000000E-01   0.00000000000000E+00   0.00000000000000E+00   1.46983516750606E-14
     -2.71260233666553E-17   1.46712256516940E-14   9.61636360906444E-15   0.00000000000000E+00   0.00000000000000E+00
      0.00000000000000E+00   0.00000000000000E+00  -1.49142149141413E-18   8.15270795277963E-15   8.15121653128822E-15
     -7.50906402229256E-15  -1.40000000000000E+01  -1.40000000000000E+01   0.00000000000000E+00   0.00000000000000E+00
     -2.29874422280715E-17  -2.27994547407541E-14  -2.28224421829822E-14  -2.10729958677185E-15
      2.90000000000000E-01
      8.00000000000000E-01   8.00000000000000E-01   0.00000000000000E+00   0.00000000000000E+00   1.47099073914464E-14
     -2.33426689017353E-17   1.46865647225447E-14   9.60218722559500E-15   0.00000000000000E+00   0.00000000000000E+00
      0.00000000000000E+00   0.00000000000000E+00  -1.49141733786340E-18   2.97058731878238E-14   2.97043817704860E-14
     -7.48483412774157E-15  -1.45000000000000E+01  -1.45000000000000E+01   0.00000000000000E+00   0.00000000000000E+00
     -2.29877917500261E-17  -4.43679587012806E-14  -4.43909464930306E-14  -2.11735309785340E-15
      3.00000000000000E-01
      8.00000000000000E-01   8.00000000000000E-01   0.00000000000000E+00   0.00000000000000E+00   1.47176162279754E-14
      2.39863116865367E-17   1.47416025396619E-14   9.58821238889053E-15   0.00000000000000E+00   0.00000000000000E+00
      0.00000000000000E+00   0.00000000000000E+00  -1.49141290825690E-18   9.45544849625477E-14   9.45529935496394E-14
     -7.46058087143036E-15  -1.50000000000000E+01  -1.50000000000000E+01   0.00000000000000E+00   0.00000000000000E+00
     -2.29881496880775E-17  -1.09271607939613E-13  -1.09294596089301E-13  -2.12763151746021E-15
      3.10000000000000E-01
      8.00000000000000E-01   8.00000000000000E-01   0.00000000000000E+00   0.00000000000000E+00   1.47204912171331E-14
     -2.13693767062718E-17   1.46991218404269E-14   9.57445683929035E-15   0.00000000000000E+00   0.00000000000000E+00
      0.00000000000000E+00   0.00000000000000E+00  -1.49140847818459E-18   2.82643705818873E-13   2.82642214410395E-13
     -7.43632290230200E-15  -1.55000000000000E+01  -1.55000000000000E+01   0.00000000000000E+00   0.00000000000000E+00
     -2.29885160490529E-17  -2.97318347734772E-13  -2.97341336250821E-13  -2.13813393698830E-15
      3.20000000000000E-01
      8.00000000000000E-01   8.00000000000000E-01   0.00000000000000E+00   0.00000000000000E+00   1.47167923123568E-14
      1.21179856021056E-18   1.47180041109170E-14   9.56093314784960E-15   0.00000000000000E+00   0.00000000000000E+00
      0.00000000000000E+00   0.00000000000000E+00  -1.49140232624257E-18   8.08014840110502E-13   8.08013348708176E-13
     -7.41207380931309E-15  -1.60000000000000E+01  -1.60000000000000E+01   0.00000000000000E+00   0.00000000000000E+00
     -2.29888908366359E-17  -8.22708363928257E-13  -8.22731352819094E-13  -2.14885933853653E-15
      3.30000000000000E-01
      8.00000000000000E-01   8.00000000000000E-01   0.00000000000000E+00   0.00000000000000E+00   1.47026309018231E-14
     -1.27711173889458E-17   1.46898597844341E-14   9.54765409398909E-15   0.00000000000000E+00   0.00000000000000E+00
      0.00000000000000E+00   0.00000000000000E+00  -1.49139090707975E-18   2.21987221594137E-12   2.21987072455046E-12
     -7.38784727318658E-15  -1.65000000000000E+01  -1.65000000000000E+01   0.00000000000000E+00   0.00000000000000E+00
     -2.29892740592638E-17  -2.23453759506086E-12  -2.23456058433492E-12  -2.15980682080245E-15
      3.40000000000000E-01
      8.00000000000000E-01   8.00000000000000E-01   0.00000000000000E+00   0.00000000000000E+00   1.46690090439053E-14
     -1.03496523819937E-17   1.46586593915234E-14   9.53463634525646E-15   0.00000000000000E+00   0.00000000000000E+00
      0.00000000000000E+00   0.00000000000000E+00  -1.49136405382768E-18   5.86621507125894E-12   5.86621357989488E-12
     -7.36366043218501E-15  -1.70000000000000E+01  -1.70000000000000E+01   0.00000000000000E+00   0.00000000000000E+00
     -2.29896657412566E-17  -5.88084924962065E-12  -5.88087223928640E-12  -2.17097591307145E-15
      3.50000000000000E-01
      8.00000000000000E-01   8.00000000000000E-01   0.00000000000000E+00   0.00000000000000E+00   1.45963981515582E-14
      4.18035697055660E-18   1.46005785085288E-14   9.52190436066371E-15   0.00000000000000E+00   0.00000000000000E+00
      0.00000000000000E+00   0.00000000000000E+00  -1.49129521610630E-18   1.49039178793029E-11   1.49039163880076E-11
     -7.33953719054860E-15  -1.75000000000000E+01  -1.75000000000000E+01   0.00000000000000E+00   0.00000000000000E+00
     -2.29900659440203E-17  -1.49184939764502E-11  -1.49185169665161E-11  -2.18236717011514E-15
      3.60000000000000E-01
      8.00000000000000E-01   8.00000000000000E-01   0.00000000000000E+00   0.00000000000000E+00   1.44464976770822E-14
      1.87208413380095E-17   1.44652185184202E-14   9.50949586303096E-15   0.00000000000000E+00   0.00000000000000E+00