DF-ISE text

Info {
  version   = 1.0
  type      = xyplot
  datasets  = [
    "time"
    "Ntop OuterVoltage" "Ntop InnerVoltage" "Ntop QuasiFermiPotential" "Ntop DisplacementCurrent" "Ntop eCurrent"
    "Ntop hCurrent" "Ntop TotalCurrent" "Ntop Charge" "Ptop OuterVoltage" "Ptop InnerVoltage"
    "Ptop QuasiFermiPotential" "Ptop DisplacementCurrent" "Ptop eCurrent" "Ptop hCurrent" "Ptop TotalCurrent"
    "Ptop Charge" "Pbot OuterVoltage" "Pbot InnerVoltage" "Pbot QuasiFermiPotential" "Pbot DisplacementCurrent"
    "Pbot eCurrent" "Pbot hCurrent" "Pbot TotalCurrent" "Pbot Charge" ]
  functions = [
    Time
    OuterVoltage InnerVoltage QuasiFermiPotential DisplacementCurrent eCurrent
    hCurrent TotalCurrent Charge OuterVoltage InnerVoltage
    QuasiFermiPotential DisplacementCurrent eCurrent hCurrent TotalCurrent
    Charge OuterVoltage InnerVoltage QuasiFermiPotential DisplacementCurrent
    eCurrent hCurrent TotalCurrent Charge ]
}

Data {
      0.00000000000000E+00
      0.00000000000000E+00   0.00000000000000E+00   0.00000000000000E+00   0.00000000000000E+00  -6.78526964739483E-23
     -2.60151337948690E-17  -2.60152016475655E-17   6.32724820948915E-15   0.00000000000000E+00   0.00000000000000E+00
      0.00000000000000E+00   0.00000000000000E+00   6.78526744160708E-23   2.35277023802689E-19   2.35344876477105E-19
     -4.42040691434333E-15   0.00000000000000E+00   0.00000000000000E+00   0.00000000000000E+00   0.00000000000000E+00
      2.58098377815814E-29   2.57798567710626E-17   2.57798567710884E-17  -1.90684129514576E-15
      0.00000000000000E+00
      0.00000000000000E+00   0.00000000000000E+00   0.00000000000000E+00   0.00000000000000E+00   9.41926157322822E-23
     -2.30754701676577E-18  -2.30745282415003E-18   6.32724820959573E-15   0.00000000000000E+00   0.00000000000000E+00
      0.00000000000000E+00   0.00000000000000E+00  -9.41926208798444E-23  -6.86704762702133E-21  -6.96124024790117E-21
     -4.42040691434337E-15   0.00000000000000E+00   0.00000000000000E+00   0.00000000000000E+00   0.00000000000000E+00
     -2.58050237528708E-30   2.31441406440052E-18   2.31441406439794E-18  -1.90684129525234E-15
      1.00000000000000E-01
      8.00000000000000E-02   8.00000000000000E-02   0.00000000000000E+00   0.00000000000000E+00   3.50539451871799E-15
      5.75996378826834E-19   3.50597051509682E-15   6.70565133005031E-15   0.00000000000000E+00   0.00000000000000E+00
      0.00000000000000E+00   0.00000000000000E+00  -8.53182140003684E-19  -2.35772694642831E-15  -2.35858012856831E-15
     -4.79806300975096E-15   0.00000000000000E+00   0.00000000000000E+00   0.00000000000000E+00   0.00000000000000E+00
     -2.28697587532545E-17  -1.12452062777525E-15  -1.14739038652851E-15  -1.90758832029936E-15
      2.00000000000000E-01
      1.60000000000000E-01   1.60000000000000E-01   0.00000000000000E+00   0.00000000000000E+00   5.26680453347170E-15
      1.28966618436637E-19   5.26693350009014E-15   7.07623565789290E-15   0.00000000000000E+00   0.00000000000000E+00
      0.00000000000000E+00   0.00000000000000E+00  -8.88851863806925E-19  -3.54329688258231E-15  -3.54418573444612E-15
     -5.16790061584280E-15   0.00000000000000E+00   0.00000000000000E+00   0.00000000000000E+00   0.00000000000000E+00
     -2.29805923662944E-17  -1.69976717327773E-15  -1.72274776564402E-15  -1.90833504205009E-15
      3.00000000000000E-01
      2.40000000000000E-01   2.40000000000000E-01   0.00000000000000E+00   0.00000000000000E+00   7.21596764161852E-15
      8.11487354009917E-20   7.21604879035393E-15   7.44019987252904E-15   0.00000000000000E+00   0.00000000000000E+00
      0.00000000000000E+00   0.00000000000000E+00  -8.90501739745605E-19  -5.02824444168394E-15  -5.02913494342369E-15
     -5.53111818957201E-15   0.00000000000000E+00   0.00000000000000E+00   0.00000000000000E+00   0.00000000000000E+00
     -2.29806739050943E-17  -2.16393317302511E-15  -2.18691384693020E-15  -1.90908168295702E-15
      4.00000000000000E-01
      3.20000000000000E-01   3.20000000000000E-01   0.00000000000000E+00   0.00000000000000E+00   9.62624059106161E-15
     -2.77047633574687E-19   9.62596354342803E-15   7.79839077767903E-15   0.00000000000000E+00   0.00000000000000E+00
      0.00000000000000E+00   0.00000000000000E+00  -8.90881821637538E-19  -7.02921697896267E-15  -7.03010786078431E-15
     -5.88856252307949E-15   0.00000000000000E+00   0.00000000000000E+00   0.00000000000000E+00   0.00000000000000E+00
     -2.29806983314430E-17  -2.57287498431227E-15  -2.59585568264372E-15  -1.90982825459954E-15
      5.00000000000000E-01
      4.00000000000000E-01   4.00000000000000E-01   0.00000000000000E+00   0.00000000000000E+00   1.19476737074889E-14
     -8.64806061655304E-20   1.19475872268827E-14   8.15098383903044E-15   0.00000000000000E+00   0.00000000000000E+00
      0.00000000000000E+00   0.00000000000000E+00  -8.91207764711208E-19  -8.97649664811801E-15  -8.97738785588272E-15
     -6.24040915008195E-15   0.00000000000000E+00   0.00000000000000E+00   0.00000000000000E+00   0.00000000000000E+00
     -2.29807233121625E-17  -2.94721864768778E-15  -2.97019937099994E-15  -1.91057468894850E-15
      6.00000000000000E-01
      4.80000000000000E-01   4.80000000000000E-01   0.00000000000000E+00   0.00000000000000E+00   1.34846044646732E-14
      2.06224194455244E-18   1.34866667066178E-14   8.49747911820897E-15   0.00000000000000E+00   0.00000000000000E+00
      0.00000000000000E+00   0.00000000000000E+00  -8.91512009555489E-19  -1.01637654056168E-14  -1.01646569176264E-14
     -6.58615822078696E-15   0.00000000000000E+00   0.00000000000000E+00   0.00000000000000E+00   0.00000000000000E+00
     -2.29807483072473E-17  -3.29902904068413E-15  -3.32200978899138E-15  -1.91132089742202E-15
      7.00000000000000E-01
      5.60000000000000E-01   5.60000000000000E-01   0.00000000000000E+00   0.00000000000000E+00   1.44320085179729E-14
      3.51225022450700E-19   1.44323597429953E-14   8.83675871695449E-15   0.00000000000000E+00   0.00000000000000E+00
      0.00000000000000E+00   0.00000000000000E+00  -8.91798544562486E-19  -1.07805453003900E-14  -1.07814370989346E-14
     -6.92469192187964E-15   0.00000000000000E+00   0.00000000000000E+00   0.00000000000000E+00   0.00000000000000E+00
     -2.29807732992563E-17  -3.62794187076151E-15  -3.65092264406077E-15  -1.91206679507487E-15
      8.00000000000000E-01
      6.40000000000000E-01   6.40000000000000E-01   0.00000000000000E+00   0.00000000000000E+00   1.50950817641151E-14
     -2.84349647318541E-19   1.50947974144677E-14   9.16755879093162E-15   0.00000000000000E+00   0.00000000000000E+00
      0.00000000000000E+00   0.00000000000000E+00  -8.92071665401087E-19  -1.11297563400681E-14  -1.11306484117335E-14
     -7.25474648294459E-15   0.00000000000000E+00   0.00000000000000E+00   0.00000000000000E+00   0.00000000000000E+00
     -2.29807982847003E-17  -3.94116820444950E-15  -3.96414900273420E-15  -1.91281230798710E-15
      9.00000000000000E-01
      7.20000000000000E-01   7.20000000000000E-01   0.00000000000000E+00   0.00000000000000E+00   1.56177115775914E-14
      1.70410290685312E-19   1.56178819878821E-14   9.48943451363558E-15   0.00000000000000E+00   0.00000000000000E+00
      0.00000000000000E+00   0.00000000000000E+00  -8.92332403343456E-19  -1.13537578531591E-14  -1.13546501855624E-14
     -7.57587714221841E-15   0.00000000000000E+00   0.00000000000000E+00   0.00000000000000E+00   0.00000000000000E+00
     -2.29808232610582E-17  -4.24025097905864E-15  -4.26323180231970E-15  -1.91355737141722E-15
      1.00000000000000E+00
      8.00000000000000E-01   8.00000000000000E-01   0.00000000000000E+00   0.00000000000000E+00   1.60645529026339E-14
      6.97744510175386E-19   1.60652506471441E-14   9.80244986625434E-15   0.00000000000000E+00   0.00000000000000E+00
      0.00000000000000E+00   0.00000000000000E+00  -8.92583957306346E-19  -1.15160263183195E-14  -1.15169189022768E-14
     -7.88814794623082E-15   0.00000000000000E+00   0.00000000000000E+00   0.00000000000000E+00   0.00000000000000E+00
     -2.29808482258708E-17  -4.52535089664148E-15  -4.54833174486735E-15  -1.91430192002351E-15
      0.00000000000000E+00
      8.00000000000000E-01   8.00000000000000E-01   0.00000000000000E+00   0.00000000000000E+00   1.60645529031986E-14
      1.79106675483878E-19   1.60647320098740E-14   9.80244986625437E-15   0.00000000000000E+00   0.00000000000000E+00
      0.00000000000000E+00   0.00000000000000E+00  -8.92584522017289E-19  -1.15160326977532E-14  -1.15169252822752E-14
     -7.88814794623086E-15   0.00000000000000E+00   0.00000000000000E+00   0.00000000000000E+00   0.00000000000000E+00
     -2.29808482258709E-17  -4.52482587937298E-15  -4.54780672759885E-15  -1.91430192002351E-15
      1.00000000000000E-02
      8.00000000000000E-01   8.00000000000000E-01   0.00000000000000E+00   0.00000000000000E+00   1.76105726797788E-14
     -5.64798223850241E-19   1.76100078815549E-14   9.80707621602266E-15   0.00000000000000E+00   0.00000000000000E+00
      0.00000000000000E+00   0.00000000000000E+00  -8.92584516698530E-19  -1.15100907589893E-14  -1.15109833435060E-14
     -7.88813199050854E-15  -5.00000000000000E-01  -5.00000000000000E-01   0.00000000000000E+00   0.00000000000000E+00
     -2.29810088738856E-17  -6.07604352917508E-15  -6.09902453804896E-15  -1.91894422551415E-15
      2.00000000000000E-02
      8.00000000000000E-01   8.00000000000000E-01   0.00000000000000E+00   0.00000000000000E+00   1.88935346032143E-14
     -9.68720315796094E-19   1.88925658828985E-14   9.81163003021143E-15   0.00000000000000E+00   0.00000000000000E+00
      0.00000000000000E+00   0.00000000000000E+00  -8.92584492253260E-19  -1.15059069540474E-14  -1.15067995385397E-14
     -7.88806004018327E-15  -1.00000000000000E+00  -1.00000000000000E+00   0.00000000000000E+00   0.00000000000000E+00
     -2.29811594039732E-17  -7.36278518495492E-15  -7.38576634435890E-15  -1.92356999002818E-15
      3.00000000000000E-02
      8.00000000000000E-01   8.00000000000000E-01   0.00000000000000E+00   0.00000000000000E+00   2.00004214591356E-14
      1.35294891212609E-18   2.00017744080477E-14   9.81598554976318E-15   0.00000000000000E+00   0.00000000000000E+00
      0.00000000000000E+00   0.00000000000000E+00  -8.92584403736748E-19  -1.15034099656202E-14  -1.15043025500239E-14
     -7.88779470229109E-15  -1.50000000000000E+00  -1.50000000000000E+00   0.00000000000000E+00   0.00000000000000E+00
     -2.29813148098393E-17  -8.47449054321387E-15  -8.49747185802371E-15  -1.92819084747209E-15
      4.00000000000000E-02
      8.00000000000000E-01   8.00000000000000E-01   0.00000000000000E+00   0.00000000000000E+00   2.09420778474232E-14
      2.18423875313469E-18   2.09442620861764E-14   9.81983997392778E-15   0.00000000000000E+00   0.00000000000000E+00
      0.00000000000000E+00   0.00000000000000E+00  -8.92584137731626E-19  -1.15030467733364E-14  -1.15039393574741E-14
     -7.88699905112894E-15  -2.00000000000000E+00  -2.00000000000000E+00   0.00000000000000E+00   0.00000000000000E+00
     -2.29814713584477E-17  -9.41734125734375E-15  -9.44032272870219E-15  -1.93284092279883E-15
      5.00000000000000E-02
      8.00000000000000E-01   8.00000000000000E-01   0.00000000000000E+00   0.00000000000000E+00   2.16778136056932E-14
     -1.00851771000710E-18   2.16768050879832E-14   9.82267436559197E-15   0.00000000000000E+00   0.00000000000000E+00
      0.00000000000000E+00   0.00000000000000E+00  -8.92583500110648E-19  -1.15058782974793E-14  -1.15067708809795E-14
     -7.88508602201884E-15  -2.50000000000000E+00  -2.50000000000000E+00   0.00000000000000E+00   0.00000000000000E+00
     -2.29816313436375E-17  -1.01470525756601E-14  -1.01700342070037E-14  -1.93758834357316E-15
      6.00000000000000E-02
      8.00000000000000E-01   8.00000000000000E-01   0.00000000000000E+00   0.00000000000000E+00   2.22502900608345E-14
      2.85362447769119E-18   2.22531436853122E-14   9.82379348391402E-15   0.00000000000000E+00   0.00000000000000E+00
      0.00000000000000E+00   0.00000000000000E+00  -8.92582253560545E-19  -1.15136883379693E-14  -1.15145809202229E-14
     -7.88130945188310E-15  -3.00000000000000E+00  -3.00000000000000E+00   0.00000000000000E+00   0.00000000000000E+00
     -2.29817964890307E-17  -1.07155809686002E-14  -1.07385627650893E-14  -1.94248403203092E-15
      7.00000000000000E-02
      8.00000000000000E-01   8.00000000000000E-01   0.00000000000000E+00   0.00000000000000E+00   2.27340388288889E-14
     -7.35677890166576E-19   2.27333031509987E-14   9.82272692207349E-15   0.00000000000000E+00   0.00000000000000E+00
      0.00000000000000E+00   0.00000000000000E+00  -8.92580269734296E-19  -1.15287922776610E-14  -1.15296848579308E-14
     -7.87516611511524E-15  -3.50000000000000E+00  -3.50000000000000E+00   0.00000000000000E+00   0.00000000000000E+00
     -2.29819679143134E-17  -1.11806363251537E-14  -1.12036182930680E-14  -1.94756080695819E-15
      8.00000000000000E-02
      8.00000000000000E-01   8.00000000000000E-01   0.00000000000000E+00   0.00000000000000E+00   2.31137223497702E-14
      7.23220697583274E-18   2.31209545567461E-14   9.81962669539025E-15   0.00000000000000E+00   0.00000000000000E+00
      0.00000000000000E+00   0.00000000000000E+00  -8.92577647861596E-19  -1.15532432988239E-14  -1.15541358764718E-14
     -7.86678112473548E-15  -4.00000000000000E+00  -4.00000000000000E+00   0.00000000000000E+00   0.00000000000000E+00
     -2.29821465442615E-17  -1.15438365337299E-14  -1.15668186802742E-14  -1.95284557065479E-15
      9.00000000000000E-02
      8.00000000000000E-01   8.00000000000000E-01   0.00000000000000E+00   0.00000000000000E+00   2.34075042096743E-14
     -7.35900520460583E-19   2.34067683091539E-14   9.81502173783484E-15   0.00000000000000E+00   0.00000000000000E+00
      0.00000000000000E+00   0.00000000000000E+00  -8.92574597153318E-19  -1.15857799556211E-14  -1.15866725302182E-14
     -7.85666357847851E-15  -4.50000000000000E+00  -4.50000000000000E+00   0.00000000000000E+00   0.00000000000000E+00
     -2.29823330689100E-17  -1.17971134458667E-14  -1.18200957789356E-14  -1.95835815935639E-15
      1.00000000000000E-01
      8.00000000000000E-01   8.00000000000000E-01   0.00000000000000E+00   0.00000000000000E+00   2.36274612548784E-14
     -1.62563917057499E-18   2.36258356157079E-14   9.80937091058390E-15   0.00000000000000E+00   0.00000000000000E+00
      0.00000000000000E+00   0.00000000000000E+00  -8.92571276602989E-19  -1.16178306617316E-14  -1.16187232330082E-14
     -7.84526138514403E-15  -5.00000000000000E+00  -5.00000000000000E+00   0.00000000000000E+00   0.00000000000000E+00
     -2.29825278808515E-17  -1.19841298548188E-14  -1.20071123826997E-14  -1.96410952543986E-15
      1.10000000000000E-01
      8.00000000000000E-01   8.00000000000000E-01   0.00000000000000E+00   0.00000000000000E+00   2.37834899121570E-14
      5.79958472707854E-18   2.37892894968841E-14   9.80295178089043E-15   0.00000000000000E+00   0.00000000000000E+00
      0.00000000000000E+00   0.00000000000000E+00  -8.92567775900445E-19  -1.16392058825274E-14  -1.16400984503033E-14
     -7.83284783569393E-15  -5.50000000000000E+00  -5.50000000000000E+00   0.00000000000000E+00   0.00000000000000E+00
     -2.29827311486489E-17  -1.21262083154322E-14  -1.21491910465808E-14  -1.97010394519649E-15
      1.20000000000000E-01
      8.00000000000000E-01   8.00000000000000E-01   0.00000000000000E+00   0.00000000000000E+00   2.38930832794364E-14
     -1.58369481950380E-18   2.38914995846169E-14   9.79591922212920E-15   0.00000000000000E+00   0.00000000000000E+00
      0.00000000000000E+00   0.00000000000000E+00  -8.92564139755157E-19  -1.16491717192884E-14  -1.16500642834282E-14
     -7.81957717335748E-15  -6.00000000000000E+00  -6.00000000000000E+00   0.00000000000000E+00   0.00000000000000E+00
     -2.29829429185697E-17  -1.22184523582702E-14  -1.22414353011888E-14  -1.97634204877176E-15
      1.30000000000000E-01
      8.00000000000000E-01   8.00000000000000E-01   0.00000000000000E+00   0.00000000000000E+00   2.39743188530642E-14
     -6.18457742059033E-18   2.39681342756437E-14   9.78836172403649E-15   0.00000000000000E+00   0.00000000000000E+00
      0.00000000000000E+00   0.00000000000000E+00  -8.92560393435804E-19  -1.16518844639014E-14  -1.16527770242949E-14
     -7.80553905209174E-15  -6.50000000000000E+00  -6.50000000000000E+00   0.00000000000000E+00   0.00000000000000E+00
     -2.29831631768780E-17  -1.22923740881719E-14  -1.23153572513488E-14  -1.98282267194473E-15
      1.40000000000000E-01
      8.00000000000000E-01   8.00000000000000E-01   0.00000000000000E+00   0.00000000000000E+00   2.40384941163232E-14
     -6.79537093420727E-18   2.40316987453890E-14   9.78033164051299E-15   0.00000000000000E+00   0.00000000000000E+00
      0.00000000000000E+00   0.00000000000000E+00  -8.92556552057871E-19  -1.16504849927152E-14  -1.16513775492673E-14
     -7.79078787345902E-15  -7.00000000000000E+00  -7.00000000000000E+00   0.00000000000000E+00   0.00000000000000E+00
     -2.29833918804877E-17  -1.23573378042412E-14  -1.23803211961217E-14  -1.98954376705401E-15
      1.50000000000000E-01
      8.00000000000000E-01   8.00000000000000E-01   0.00000000000000E+00   0.00000000000000E+00   2.40914522371369E-14
     -3.03999045729835E-18   2.40884122466796E-14   9.77185969001994E-15   0.00000000000000E+00   0.00000000000000E+00
      0.00000000000000E+00   0.00000000000000E+00  -8.92552625957847E-19  -1.16466272127736E-14  -1.16475197653996E-14
     -7.77535685493592E-15  -7.50000000000000E+00  -7.50000000000000E+00   0.00000000000000E+00   0.00000000000000E+00
     -2.29836289714948E-17  -1.24179088523085E-14  -1.24408924812800E-14  -1.99650283508404E-15
      1.60000000000000E-01
      8.00000000000000E-01   8.00000000000000E-01   0.00000000000000E+00   0.00000000000000E+00   2.41362197149082E-14
     -9.47836552926250E-20   2.41361249312529E-14   9.76296168206168E-15   0.00000000000000E+00   0.00000000000000E+00
      0.00000000000000E+00   0.00000000000000E+00  -8.92548622837858E-19  -1.16410765880238E-14  -1.16419691366466E-14
     -7.75926455128674E-15  -8.00000000000000E+00  -8.00000000000000E+00   0.00000000000000E+00   0.00000000000000E+00
     -2.29838743840631E-17  -1.24711719202222E-14  -1.24941557946063E-14  -2.00369713077496E-15
      1.70000000000000E-01
      8.00000000000000E-01   8.00000000000000E-01   0.00000000000000E+00   0.00000000000000E+00   2.41746075729343E-14
     -6.05581775069893E-18   2.41685517551836E-14   9.75364117052836E-15   0.00000000000000E+00   0.00000000000000E+00
      0.00000000000000E+00   0.00000000000000E+00  -8.92544546480013E-19  -1.16342013355696E-14  -1.16350938801160E-14
     -7.74251742094896E-15  -8.50000000000000E+00  -8.50000000000000E+00   0.00000000000000E+00   0.00000000000000E+00
     -2.29841280473147E-17  -1.25104737470203E-14  -1.25334578750676E-14  -2.01112374957939E-15
      1.80000000000000E-01
      8.00000000000000E-01   8.00000000000000E-01   0.00000000000000E+00   0.00000000000000E+00   2.42078458310757E-14
     -1.48809767251026E-17   2.41929648543506E-14   9.74388941373397E-15   0.00000000000000E+00   0.00000000000000E+00
      0.00000000000000E+00   0.00000000000000E+00  -8.92540401364119E-19  -1.16261692292271E-14  -1.16270617696284E-14
     -7.72510977752131E-15  -9.00000000000000E+00  -9.00000000000000E+00   0.00000000000000E+00   0.00000000000000E+00
     -2.29843898855589E-17  -1.25429186948366E-14  -1.25659030847222E-14  -2.01877963621268E-15
      1.90000000000000E-01
      8.00000000000000E-01   8.00000000000000E-01   0.00000000000000E+00   0.00000000000000E+00   2.42369186125451E-14
     -2.18073591114601E-17   2.42151112534337E-14   9.73368293230937E-15   0.00000000000000E+00   0.00000000000000E+00
      0.00000000000000E+00   0.00000000000000E+00  -8.92536188120676E-19  -1.16170708098890E-14  -1.16179633460771E-14
     -7.70702140762194E-15  -9.50000000000000E+00  -9.50000000000000E+00   0.00000000000000E+00   0.00000000000000E+00
     -2.29846598161756E-17  -1.25741632475404E-14  -1.25971479073565E-14  -2.02666152468748E-15
      2.00000000000000E-01
      8.00000000000000E-01   8.00000000000000E-01   0.00000000000000E+00   0.00000000000000E+00   2.42628176697466E-14
     -1.25341551751853E-18   2.42615642542291E-14   9.72297863454859E-15   0.00000000000000E+00   0.00000000000000E+00
      0.00000000000000E+00   0.00000000000000E+00  -8.92531908482742E-19  -1.16068211779314E-14  -1.16077137098399E-14
     -7.68821282107390E-15  -1.00000000000000E+01  -1.00000000000000E+01   0.00000000000000E+00   0.00000000000000E+00
     -2.29849377452501E-17  -1.26308656066440E-14  -1.26538505443893E-14  -2.03476581347470E-15
      2.10000000000000E-01
      8.00000000000000E-01   8.00000000000000E-01   0.00000000000000E+00   0.00000000000000E+00   2.42865791793193E-14
      8.25656377161973E-18   2.42948357430909E-14   9.71170752129143E-15   0.00000000000000E+00   0.00000000000000E+00
      0.00000000000000E+00   0.00000000000000E+00  -8.92527560371016E-19  -1.15949508933741E-14  -1.15958434209344E-14
     -7.66861911052343E-15  -1.05000000000000E+01  -1.05000000000000E+01   0.00000000000000E+00   0.00000000000000E+00
     -2.29852235621434E-17  -1.26760070985944E-14  -1.26989923221565E-14  -2.04308841076801E-15
      2.20000000000000E-01
      8.00000000000000E-01   8.00000000000000E-01   0.00000000000000E+00   0.00000000000000E+00   2.43090021863633E-14
     -6.96216930189406E-19   2.43083059694332E-14   9.69977344458675E-15   0.00000000000000E+00   0.00000000000000E+00
      0.00000000000000E+00   0.00000000000000E+00  -8.92523140445360E-19  -1.15794048016614E-14  -1.15802973248018E-14
     -7.64814871293080E-15  -1.10000000000000E+01  -1.10000000000000E+01   0.00000000000000E+00   0.00000000000000E+00
     -2.29855171392367E-17  -1.27050231274921E-14  -1.27280086446313E-14  -2.05162473165598E-15
      2.30000000000000E-01
      8.00000000000000E-01   8.00000000000000E-01   0.00000000000000E+00   0.00000000000000E+00   2.43306401709332E-14
     -9.47208974466493E-19   2.43296929619587E-14   9.68707887989041E-15   0.00000000000000E+00   0.00000000000000E+00
      0.00000000000000E+00   0.00000000000000E+00  -8.92518646152267E-19  -1.15525961692548E-14  -1.15534886879010E-14
     -7.62670845366752E-15  -1.15000000000000E+01  -1.15000000000000E+01   0.00000000000000E+00   0.00000000000000E+00
     -2.29858183568656E-17  -1.27532184557010E-14  -1.27762042740578E-14  -2.06037042622287E-15
      2.40000000000000E-01
      8.00000000000000E-01   8.00000000000000E-01   0.00000000000000E+00   0.00000000000000E+00   2.43517567606668E-14
      1.53140206698672E-17   2.43670707813367E-14   9.67361010222581E-15   0.00000000000000E+00   0.00000000000000E+00
      0.00000000000000E+00   0.00000000000000E+00  -8.92514083509341E-19  -1.14874117809210E-14  -1.14883042950045E-14
     -7.60428646480831E-15  -1.20000000000000E+01  -1.20000000000000E+01   0.00000000000000E+00   0.00000000000000E+00
     -2.29861271812721E-17  -1.28557803591509E-14  -1.28787664863322E-14  -2.06932363741749E-15
      2.50000000000000E-01
      8.00000000000000E-01   8.00000000000000E-01   0.00000000000000E+00   0.00000000000000E+00   2.43721483505591E-14
     -2.43974898929387E-17   2.43477508606662E-14   9.65953466066856E-15   0.00000000000000E+00   0.00000000000000E+00
      0.00000000000000E+00   0.00000000000000E+00  -8.92509468692828E-19  -1.12889718036741E-14  -1.12898643131428E-14
     -7.58104721601095E-15  -1.25000000000000E+01  -1.25000000000000E+01   0.00000000000000E+00   0.00000000000000E+00
     -2.29864437497015E-17  -1.30349001037736E-14  -1.30578865475233E-14  -2.07848744465766E-15
      2.60000000000000E-01
      8.00000000000000E-01   8.00000000000000E-01   0.00000000000000E+00   0.00000000000000E+00   2.43912426401042E-14
     -7.94118085477046E-18   2.43833014592494E-14   9.64514822191789E-15   0.00000000000000E+00   0.00000000000000E+00
      0.00000000000000E+00   0.00000000000000E+00  -8.92504824967183E-19  -1.06368659438724E-14  -1.06377584486973E-14
     -7.55727994690731E-15  -1.30000000000000E+01  -1.30000000000000E+01   0.00000000000000E+00   0.00000000000000E+00
     -2.29867683167136E-17  -1.37225562422354E-14  -1.37455430105521E-14  -2.08786827501065E-15
      2.70000000000000E-01
      8.00000000000000E-01   8.00000000000000E-01   0.00000000000000E+00   0.00000000000000E+00   2.44084124375331E-14
      2.33754519530878E-17   2.44317878894861E-14   9.63070794322824E-15   0.00000000000000E+00   0.00000000000000E+00
      0.00000000000000E+00   0.00000000000000E+00  -8.92500172495951E-19  -8.48811750092900E-15  -8.48901000110149E-15
     -7.53323646303214E-15  -1.35000000000000E+01  -1.35000000000000E+01   0.00000000000000E+00   0.00000000000000E+00
     -2.29871011017391E-17  -1.59197907872829E-14  -1.59427778883846E-14  -2.09747148019611E-15
      2.80000000000000E-01
      8.00000000000000E-01   8.00000000000000E-01   0.00000000000000E+00   0.00000000000000E+00   2.44230810157291E-14
      1.59494584604651E-17   2.44390304741895E-14   9.61636360899690E-15   0.00000000000000E+00   0.00000000000000E+00
      0.00000000000000E+00   0.00000000000000E+00  -8.92495516315827E-19  -1.57262221953977E-15  -1.57351471505609E-15
     -7.50906402222484E-15  -1.40000000000000E+01  -1.40000000000000E+01   0.00000000000000E+00   0.00000000000000E+00
     -2.29874422280723E-17  -2.28425283169053E-14  -2.28655157591333E-14  -2.10729958677204E-15
      2.90000000000000E-01
      8.00000000000000E-01   8.00000000000000E-01   0.00000000000000E+00   0.00000000000000E+00   2.44346367262031E-14
      1.04121811275355E-18   2.44356779443159E-14   9.60218722552751E-15   0.00000000000000E+00   0.00000000000000E+00
      0.00000000000000E+00   0.00000000000000E+00  -8.92490796507773E-19   1.99805479696904E-14   1.99796554788939E-14
     -7.48483412767392E-15  -1.45000000000000E+01  -1.45000000000000E+01   0.00000000000000E+00   0.00000000000000E+00
     -2.29877917500265E-17  -4.43923456314597E-14  -4.44153334232097E-14  -2.11735309785355E-15
      3.00000000000000E-01
      8.00000000000000E-01   8.00000000000000E-01   0.00000000000000E+00   0.00000000000000E+00   2.44423455568360E-14
     -1.81488963397848E-17   2.44241966604963E-14   9.58821238882300E-15   0.00000000000000E+00   0.00000000000000E+00
      0.00000000000000E+00   0.00000000000000E+00  -8.92485805773534E-19   8.48291517514938E-14   8.48282592656880E-14
     -7.46058087136279E-15  -1.50000000000000E+01  -1.50000000000000E+01   0.00000000000000E+00   0.00000000000000E+00
     -2.29881496880767E-17  -1.09229467776496E-13  -1.09252455926184E-13  -2.12763151746021E-15
      3.10000000000000E-01
      8.00000000000000E-01   8.00000000000000E-01   0.00000000000000E+00   0.00000000000000E+00   2.44452205400440E-14
     -8.43709278030775E-18   2.44367834472637E-14   9.57445683922295E-15   0.00000000000000E+00   0.00000000000000E+00
      0.00000000000000E+00   0.00000000000000E+00  -8.92480769360830E-19   2.72918377463787E-13   2.72917484983018E-13
     -7.43632290223450E-15  -1.55000000000000E+01  -1.55000000000000E+01   0.00000000000000E+00   0.00000000000000E+00
     -2.29885160490529E-17  -2.97331279914232E-13  -2.97354268430281E-13  -2.13813393698844E-15
      3.20000000000000E-01
      8.00000000000000E-01   8.00000000000000E-01   0.00000000000000E+00   0.00000000000000E+00   2.44415216292904E-14
     -3.30268426507587E-18   2.44382189450253E-14   9.56093314778222E-15   0.00000000000000E+00   0.00000000000000E+00
      0.00000000000000E+00   0.00000000000000E+00  -8.92474118205910E-19   7.98289505296706E-13   7.98288612822588E-13
     -7.41207380924561E-15  -1.60000000000000E+01  -1.60000000000000E+01   0.00000000000000E+00   0.00000000000000E+00
     -2.29888908366353E-17  -8.22703842876780E-13  -8.22726831767616E-13  -2.14885933853663E-15
      3.30000000000000E-01
      8.00000000000000E-01   8.00000000000000E-01   0.00000000000000E+00   0.00000000000000E+00   2.44273602121834E-14
      2.12314257289996E-17   2.44485916379124E-14   9.54765409392180E-15   0.00000000000000E+00   0.00000000000000E+00
      0.00000000000000E+00   0.00000000000000E+00  -8.92462210349746E-19   2.21014687256966E-12   2.21014598010745E-12
     -7.38784727311915E-15  -1.65000000000000E+01  -1.65000000000000E+01   0.00000000000000E+00   0.00000000000000E+00
     -2.29892740592648E-17  -2.23457158247133E-12  -2.23459457174538E-12  -2.15980682080264E-15
      3.40000000000000E-01
      8.00000000000000E-01   8.00000000000000E-01   0.00000000000000E+00   0.00000000000000E+00   2.43937383457005E-14
      6.71727883434165E-18   2.44004556245348E-14   9.53463634518914E-15   0.00000000000000E+00   0.00000000000000E+00
      0.00000000000000E+00   0.00000000000000E+00  -8.92434960644228E-19   5.85648973409179E-12   5.85648884165683E-12
     -7.36366043211759E-15  -1.70000000000000E+01  -1.70000000000000E+01   0.00000000000000E+00   0.00000000000000E+00
     -2.29896657412560E-17  -5.88086630761562E-12  -5.88088929728136E-12  -2.17097591307160E-15
      3.50000000000000E-01
      8.00000000000000E-01   8.00000000000000E-01   0.00000000000000E+00   0.00000000000000E+00   2.43211274388000E-14
     -1.14951086416539E-17   2.43096323301583E-14   9.52190436059636E-15   0.00000000000000E+00   0.00000000000000E+00
      0.00000000000000E+00   0.00000000000000E+00  -8.92365929694450E-19   1.48941925614852E-11   1.48941916691192E-11
     -7.33953719048113E-15  -1.75000000000000E+01  -1.75000000000000E+01   0.00000000000000E+00   0.00000000000000E+00
     -2.29900659440201E-17  -1.49184783113834E-11  -1.49185013014494E-11  -2.18236717011521E-15
      3.60000000000000E-01
      8.00000000000000E-01   8.00000000000000E-01   0.00000000000000E+00   0.00000000000000E+00   2.41712269338719E-14
      1.79738691179426E-17   2.41892008029899E-14   9.50949586296362E-15   0.00000000000000E+00   0.00000000000000E+00