DF-ISE text

Info {
  version   = 1.0
  type      = xyplot
  datasets  = [
    "time"
    "Ntop OuterVoltage" "Ntop InnerVoltage" "Ntop QuasiFermiPotential" "Ntop DisplacementCurrent" "Ntop eCurrent"
    "Ntop hCurrent" "Ntop TotalCurrent" "Ntop Charge" "Ptop OuterVoltage" "Ptop InnerVoltage"
    "Ptop QuasiFermiPotential" "Ptop DisplacementCurrent" "Ptop eCurrent" "Ptop hCurrent" "Ptop TotalCurrent"
    "Ptop Charge" "Pbot OuterVoltage" "Pbot InnerVoltage" "Pbot QuasiFermiPotential" "Pbot DisplacementCurrent"
    "Pbot eCurrent" "Pbot hCurrent" "Pbot TotalCurrent" "Pbot Charge" ]
  functions = [
    Time
    OuterVoltage InnerVoltage QuasiFermiPotential DisplacementCurrent eCurrent
    hCurrent TotalCurrent Charge OuterVoltage InnerVoltage
    QuasiFermiPotential DisplacementCurrent eCurrent hCurrent TotalCurrent
    Charge OuterVoltage InnerVoltage QuasiFermiPotential DisplacementCurrent
    eCurrent hCurrent TotalCurrent Charge ]
}

Data {
      0.00000000000000E+00
      0.00000000000000E+00   0.00000000000000E+00   0.00000000000000E+00   0.00000000000000E+00  -1.43392593100238E-23
     -2.57927403466645E-17  -2.57927546859239E-17   3.48213650012178E-15   0.00000000000000E+00   0.00000000000000E+00
      0.00000000000000E+00   0.00000000000000E+00   1.43393010553498E-23  -1.15694263655645E-19  -1.15679924354590E-19
     -1.57529520486937E-15   0.00000000000000E+00   0.00000000000000E+00   0.00000000000000E+00   0.00000000000000E+00
     -4.12957376022351E-29   2.59084346103197E-17   2.59084346102784E-17  -1.90684129525242E-15
      0.00000000000000E+00
      0.00000000000000E+00   0.00000000000000E+00   0.00000000000000E+00   0.00000000000000E+00   1.45202553950957E-22
      1.25769232464110E-19   1.25914435018061E-19   3.48213649720853E-15   0.00000000000000E+00   0.00000000000000E+00
      0.00000000000000E+00   0.00000000000000E+00  -1.45202549932808E-22   1.35339549171526E-20   1.33887523672198E-20
     -1.57529520195610E-15   0.00000000000000E+00   0.00000000000000E+00   0.00000000000000E+00   0.00000000000000E+00
     -7.04204870441189E-31  -1.39303187384577E-19  -1.39303187385281E-19  -1.90684129525242E-15
      1.00000000000000E-01
      8.00000000000000E-02   8.00000000000000E-02   0.00000000000000E+00   0.00000000000000E+00   1.53079074007164E-15
      2.06504293284203E-19   1.53099724436493E-15   3.60990153310911E-15   0.00000000000000E+00   0.00000000000000E+00
      0.00000000000000E+00   0.00000000000000E+00  -1.45840799051696E-18  -3.82459182051449E-16  -3.83917590041966E-16
     -1.70231321280790E-15   0.00000000000000E+00   0.00000000000000E+00   0.00000000000000E+00   0.00000000000000E+00
     -2.28697587554952E-17  -1.12420989556746E-15  -1.14707965432296E-15  -1.90758832030121E-15
      2.00000000000000E-01
      1.60000000000000E-01   1.60000000000000E-01   0.00000000000000E+00   0.00000000000000E+00   2.28069304247536E-15
      4.42464240066444E-19   2.28113550671542E-15   3.73542819964705E-15   0.00000000000000E+00   0.00000000000000E+00
      0.00000000000000E+00   0.00000000000000E+00  -1.52155181322840E-18  -5.56544751138537E-16  -5.58066302951765E-16
     -1.82709315759295E-15   0.00000000000000E+00   0.00000000000000E+00   0.00000000000000E+00   0.00000000000000E+00
     -2.29805923666714E-17  -1.70008861139699E-15  -1.72306920376366E-15  -1.90833504205410E-15
      3.00000000000000E-01
      2.40000000000000E-01   2.40000000000000E-01   0.00000000000000E+00   0.00000000000000E+00   2.93423385685827E-15
      9.74564287982935E-19   2.93520842114625E-15   3.85916927011831E-15   0.00000000000000E+00   0.00000000000000E+00
      0.00000000000000E+00   0.00000000000000E+00  -1.52491238485445E-18  -7.45826764155531E-16  -7.47351676540386E-16
     -1.95008758715339E-15   0.00000000000000E+00   0.00000000000000E+00   0.00000000000000E+00   0.00000000000000E+00
     -2.29806739050940E-17  -2.16487607070077E-15  -2.18785674460587E-15  -1.90908168296492E-15
      4.00000000000000E-01
      3.20000000000000E-01   3.20000000000000E-01   0.00000000000000E+00   0.00000000000000E+00   3.57640968302433E-15
      3.61299612461125E-19   3.57677098263679E-15   3.98139196593127E-15   0.00000000000000E+00   0.00000000000000E+00
      0.00000000000000E+00   0.00000000000000E+00  -1.52598219727897E-18  -9.78735711349990E-16  -9.80261693547269E-16
     -2.07156371131613E-15   0.00000000000000E+00   0.00000000000000E+00   0.00000000000000E+00   0.00000000000000E+00
     -2.29806983314435E-17  -2.57352859075808E-15  -2.59650928908952E-15  -1.90982825461513E-15
      5.00000000000000E-01
      4.00000000000000E-01   4.00000000000000E-01   0.00000000000000E+00   0.00000000000000E+00   4.15904585014972E-15
      1.58123634685606E-18   4.16062708649658E-15   4.10222882574860E-15   0.00000000000000E+00   0.00000000000000E+00
      0.00000000000000E+00   0.00000000000000E+00  -1.52692418981183E-18  -1.18720785137633E-15  -1.18873477556614E-15
     -2.19165413676834E-15   0.00000000000000E+00   0.00000000000000E+00   0.00000000000000E+00   0.00000000000000E+00
     -2.29807233121635E-17  -2.94891158761828E-15  -2.97189231093044E-15  -1.91057468898027E-15
      6.00000000000000E-01
      4.80000000000000E-01   4.80000000000000E-01   0.00000000000000E+00   0.00000000000000E+00   4.64027568585501E-15
     -7.06374829907401E-19   4.63956931102510E-15   4.22170546159505E-15   0.00000000000000E+00   0.00000000000000E+00
      0.00000000000000E+00   0.00000000000000E+00  -1.52779953009582E-18  -1.31872113663906E-15  -1.32024893616916E-15
     -2.31038456410591E-15   0.00000000000000E+00   0.00000000000000E+00   0.00000000000000E+00   0.00000000000000E+00
     -2.29807483072495E-17  -3.29633962654870E-15  -3.31932037485595E-15  -1.91132089748913E-15
      7.00000000000000E-01
      5.60000000000000E-01   5.60000000000000E-01   0.00000000000000E+00   0.00000000000000E+00   5.05876238248039E-15
     -4.64845838115706E-19   5.05829753664227E-15   4.33975454505586E-15   0.00000000000000E+00   0.00000000000000E+00
      0.00000000000000E+00   0.00000000000000E+00  -1.52861550455289E-18  -1.40660702686297E-15  -1.40813564236752E-15
     -2.42768774983402E-15   0.00000000000000E+00   0.00000000000000E+00   0.00000000000000E+00   0.00000000000000E+00
     -2.29807732992614E-17  -3.62718112097549E-15  -3.65016189427475E-15  -1.91206679522184E-15
      8.00000000000000E-01
      6.40000000000000E-01   6.40000000000000E-01   0.00000000000000E+00   0.00000000000000E+00   5.44527997730780E-15
      1.01092525807587E-18   5.44629090256588E-15   4.45622281621430E-15   0.00000000000000E+00   0.00000000000000E+00
      0.00000000000000E+00   0.00000000000000E+00  -1.52938115134200E-18  -1.47927317347681E-15  -1.48080255462815E-15
     -2.54341050789346E-15   0.00000000000000E+00   0.00000000000000E+00   0.00000000000000E+00   0.00000000000000E+00
     -2.29807982847114E-17  -3.94250754965301E-15  -3.96548834793773E-15  -1.91281230832083E-15
      9.00000000000000E-01
      7.20000000000000E-01   7.20000000000000E-01   0.00000000000000E+00   0.00000000000000E+00   5.81303425873244E-15
     -1.66543344415806E-19   5.81286771538803E-15   4.57088253375981E-15   0.00000000000000E+00   0.00000000000000E+00
      0.00000000000000E+00   0.00000000000000E+00  -1.53010083452568E-18  -1.54838440565077E-15  -1.54991450648530E-15
     -2.65732516155391E-15   0.00000000000000E+00   0.00000000000000E+00   0.00000000000000E+00   0.00000000000000E+00
     -2.29808232610848E-17  -4.23997238564164E-15  -4.26295320890273E-15  -1.91355737220591E-15
      1.00000000000000E+00
      8.00000000000000E-01   8.00000000000000E-01   0.00000000000000E+00   0.00000000000000E+00   6.16872555674338E-15
      1.23132482805916E-18   6.16995688157144E-15   4.68347238568292E-15   0.00000000000000E+00   0.00000000000000E+00
      0.00000000000000E+00   0.00000000000000E+00  -1.53077980634319E-18  -1.61950504747010E-15  -1.62103582727645E-15
     -2.76917046371553E-15   0.00000000000000E+00   0.00000000000000E+00   0.00000000000000E+00   0.00000000000000E+00
     -2.29808482259362E-17  -4.52594020606905E-15  -4.54892105429498E-15  -1.91430192196738E-15
      0.00000000000000E+00
      8.00000000000000E-01   8.00000000000000E-01   0.00000000000000E+00   0.00000000000000E+00   6.16872555685555E-15
      2.48474133088419E-19   6.16897403098864E-15   4.68347238568292E-15   0.00000000000000E+00   0.00000000000000E+00
      0.00000000000000E+00   0.00000000000000E+00  -1.53077991855312E-18  -1.61950794887134E-15  -1.62103872878990E-15
     -2.76917046371553E-15   0.00000000000000E+00   0.00000000000000E+00   0.00000000000000E+00   0.00000000000000E+00
     -2.29808482259361E-17  -4.52495445397279E-15  -4.54793530219873E-15  -1.91430192196738E-15
      1.00000000000000E-02
      8.00000000000000E-01   8.00000000000000E-01   0.00000000000000E+00   0.00000000000000E+00   7.71473403062889E-15
     -1.78262402779468E-18   7.71295140660110E-15   4.68809894896902E-15   0.00000000000000E+00   0.00000000000000E+00
      0.00000000000000E+00   0.00000000000000E+00  -1.53077991427894E-18  -1.61355331996546E-15  -1.61508409987974E-15
     -2.76915471209526E-15  -5.00000000000000E-01  -5.00000000000000E-01   0.00000000000000E+00   0.00000000000000E+00
     -2.29810088743023E-17  -6.07488629784705E-15  -6.09786730672136E-15  -1.91894423687375E-15
      2.00000000000000E-02
      8.00000000000000E-01   8.00000000000000E-01   0.00000000000000E+00   0.00000000000000E+00   8.99764669200446E-15
      8.01145049362953E-19   8.99844783705383E-15   4.69265372117604E-15   0.00000000000000E+00   0.00000000000000E+00
      0.00000000000000E+00   0.00000000000000E+00  -1.53077989291993E-18  -1.60940416070658E-15  -1.61093494059950E-15
     -2.76908367827170E-15  -1.00000000000000E+00  -1.00000000000000E+00   0.00000000000000E+00   0.00000000000000E+00
     -2.29811594057505E-17  -7.36453173704857E-15  -7.38751289645432E-15  -1.92357004290433E-15
      3.00000000000000E-02
      8.00000000000000E-01   8.00000000000000E-01   0.00000000000000E+00   0.00000000000000E+00   1.01043672677847E-14
      1.19154384786569E-18   1.01055588116326E-14   4.69701282939383E-15   0.00000000000000E+00   0.00000000000000E+00
      0.00000000000000E+00   0.00000000000000E+00  -1.53077981453541E-18  -1.60692040477804E-15  -1.60845118459258E-15
     -2.76882178296300E-15  -1.50000000000000E+00  -1.50000000000000E+00   0.00000000000000E+00   0.00000000000000E+00
     -2.29813148165341E-17  -8.47412631222344E-15  -8.49710762703997E-15  -1.92819104643084E-15
      4.00000000000000E-02
      8.00000000000000E-01   8.00000000000000E-01   0.00000000000000E+00   0.00000000000000E+00   1.10456226918162E-14
     -2.94047589774289E-18   1.10426822159185E-14   4.70087838975446E-15   0.00000000000000E+00   0.00000000000000E+00
      0.00000000000000E+00   0.00000000000000E+00  -1.53077958029880E-18  -1.60651826809474E-15  -1.60804904767504E-15
     -2.76803687623662E-15  -2.00000000000000E+00  -2.00000000000000E+00   0.00000000000000E+00   0.00000000000000E+00
     -2.29814713783446E-17  -9.41165169686509E-15  -9.43463316824343E-15  -1.93284151351783E-15
      5.00000000000000E-02
      8.00000000000000E-01   8.00000000000000E-01   0.00000000000000E+00   0.00000000000000E+00   1.17806814807073E-14
     -3.93769388075601E-18   1.17767437868265E-14   4.70374098766060E-15   0.00000000000000E+00   0.00000000000000E+00
      0.00000000000000E+00   0.00000000000000E+00  -1.53077901916015E-18  -1.60932537209274E-15  -1.61085615111190E-15
     -2.76615122359237E-15  -2.50000000000000E+00  -2.50000000000000E+00   0.00000000000000E+00   0.00000000000000E+00
     -2.29816313915312E-17  -1.01429060043231E-14  -1.01658876357146E-14  -1.93758976406821E-15
      6.00000000000000E-02
      8.00000000000000E-01   8.00000000000000E-01   0.00000000000000E+00   0.00000000000000E+00   1.23519326004804E-14
      6.31983435568726E-18   1.23582524348361E-14   4.70491855822654E-15   0.00000000000000E+00   0.00000000000000E+00
      0.00000000000000E+00   0.00000000000000E+00  -1.53077792332248E-18  -1.61696970463572E-15  -1.61850048255905E-15
     -2.76243163852333E-15  -3.00000000000000E+00  -3.00000000000000E+00   0.00000000000000E+00   0.00000000000000E+00
     -2.29817965864884E-17  -1.07167701556906E-14  -1.07397519522770E-14  -1.94248691970322E-15
      7.00000000000000E-02
      8.00000000000000E-01   8.00000000000000E-01   0.00000000000000E+00   0.00000000000000E+00   1.28343859917065E-14
     -1.07449668271127E-17   1.28236410248794E-14   4.70394859527749E-15   0.00000000000000E+00   0.00000000000000E+00
      0.00000000000000E+00   0.00000000000000E+00  -1.53077618134345E-18  -1.63182114449038E-15  -1.63335192067172E-15
     -2.75638273671561E-15  -3.50000000000000E+00  -3.50000000000000E+00   0.00000000000000E+00   0.00000000000000E+00
     -2.29819680849744E-17  -1.11673071361227E-14  -1.11902891042077E-14  -1.94756585856188E-15
      8.00000000000000E-02
      8.00000000000000E-01   8.00000000000000E-01   0.00000000000000E+00   0.00000000000000E+00   1.32128887010397E-14
     -5.84761523062371E-18   1.32070410858090E-14   4.70097892155284E-15   0.00000000000000E+00   0.00000000000000E+00
      0.00000000000000E+00   0.00000000000000E+00  -1.53077388031122E-18  -1.65582465681667E-15  -1.65735543069698E-15
     -2.74812554733826E-15  -4.00000000000000E+00  -4.00000000000000E+00   0.00000000000000E+00   0.00000000000000E+00
     -2.29821468081644E-17  -1.15267035083039E-14  -1.15496856551120E-14  -1.95285337421458E-15
      9.00000000000000E-02
      8.00000000000000E-01   8.00000000000000E-01   0.00000000000000E+00   0.00000000000000E+00   1.35059135071013E-14
      3.44079289784203E-18   1.35093542999992E-14   4.69653191968524E-15   0.00000000000000E+00   0.00000000000000E+00
      0.00000000000000E+00   0.00000000000000E+00  -1.53077120572399E-18  -1.68787790273741E-15  -1.68940867394313E-15
     -2.73816270312039E-15  -4.50000000000000E+00  -4.50000000000000E+00   0.00000000000000E+00   0.00000000000000E+00
     -2.29823334432404E-17  -1.17969632926128E-14  -1.18199456260560E-14  -1.95836921656485E-15
      1.00000000000000E-01
      8.00000000000000E-01   8.00000000000000E-01   0.00000000000000E+00   0.00000000000000E+00   1.37257130840490E-14
     -8.26385499204535E-19   1.37248866985498E-14   4.69106498201295E-15   0.00000000000000E+00   0.00000000000000E+00
      0.00000000000000E+00   0.00000000000000E+00  -1.53076829716779E-18  -1.71969378061927E-15  -1.72122454891643E-15
     -2.72694061365733E-15  -5.00000000000000E+00  -5.00000000000000E+00   0.00000000000000E+00   0.00000000000000E+00
     -2.29825283838874E-17  -1.19806796212495E-14  -1.20036621496334E-14  -1.96412436835563E-15
      1.10000000000000E-01
      8.00000000000000E-01   8.00000000000000E-01   0.00000000000000E+00   0.00000000000000E+00   1.38820375092764E-14
     -5.99691649908262E-18   1.38760405927773E-14   4.68485752165338E-15   0.00000000000000E+00   0.00000000000000E+00
      0.00000000000000E+00   0.00000000000000E+00  -1.53076523337941E-18  -1.74110161208540E-15  -1.74263237731878E-15
     -2.71473432496707E-15  -5.50000000000000E+00  -5.50000000000000E+00   0.00000000000000E+00   0.00000000000000E+00
     -2.29827318018213E-17  -1.21104254836567E-14  -1.21334082154585E-14  -1.97012319668630E-15
      1.20000000000000E-01
      8.00000000000000E-01   8.00000000000000E-01   0.00000000000000E+00   0.00000000000000E+00   1.39919237962221E-14
     -2.14921020144189E-19   1.39917088752019E-14   4.67806757626586E-15   0.00000000000000E+00   0.00000000000000E+00
      0.00000000000000E+00   0.00000000000000E+00  -1.53076205521625E-18  -1.75114309762649E-15  -1.75267385968171E-15
     -2.70170113238226E-15  -6.00000000000000E+00  -6.00000000000000E+00   0.00000000000000E+00   0.00000000000000E+00
     -2.29829437472052E-17  -1.22160520717730E-14  -1.22390350155202E-14  -1.97636644388361E-15
      1.30000000000000E-01
      8.00000000000000E-01   8.00000000000000E-01   0.00000000000000E+00   0.00000000000000E+00   1.40732818926940E-14
      4.72016599439978E-18   1.40780020586884E-14   4.67078760973121E-15   0.00000000000000E+00   0.00000000000000E+00
      0.00000000000000E+00   0.00000000000000E+00  -1.53075878395475E-18  -1.75386076312174E-15  -1.75539152190570E-15
     -2.68793453644640E-15  -6.50000000000000E+00  -6.50000000000000E+00   0.00000000000000E+00   0.00000000000000E+00
     -2.29831642107445E-17  -1.22996273725719E-14  -1.23226105367827E-14  -1.98285307328478E-15
      1.40000000000000E-01
      8.00000000000000E-01   8.00000000000000E-01   0.00000000000000E+00   0.00000000000000E+00   1.41374186695549E-14
     -1.94989270455614E-17   1.41179197425093E-14   4.66307488565984E-15   0.00000000000000E+00   0.00000000000000E+00
      0.00000000000000E+00   0.00000000000000E+00  -1.53075543354984E-18  -1.75243974461489E-15  -1.75397050004844E-15
     -2.67349369943071E-15  -7.00000000000000E+00  -7.00000000000000E+00   0.00000000000000E+00   0.00000000000000E+00
     -2.29833931545488E-17  -1.23409658493063E-14  -1.23639492424609E-14  -1.98958118622913E-15
      1.50000000000000E-01
      8.00000000000000E-01   8.00000000000000E-01   0.00000000000000E+00   0.00000000000000E+00   1.41902013149745E-14
      2.15584042789036E-18   1.41923571554024E-14   4.65496638307705E-15   0.00000000000000E+00   0.00000000000000E+00
      0.00000000000000E+00   0.00000000000000E+00  -1.53075201333580E-18  -1.74850911432568E-15  -1.75003986633901E-15
     -2.65841791747533E-15  -7.50000000000000E+00  -7.50000000000000E+00   0.00000000000000E+00   0.00000000000000E+00
     -2.29836305270641E-17  -1.24193336585363E-14  -1.24423172890634E-14  -1.99654846560172E-15
      1.60000000000000E-01
      8.00000000000000E-01   8.00000000000000E-01   0.00000000000000E+00   0.00000000000000E+00   1.42346615371050E-14
     -3.54358922446176E-18   1.42311179478805E-14   4.64648623063353E-15   0.00000000000000E+00   0.00000000000000E+00
      0.00000000000000E+00   0.00000000000000E+00  -1.53074852963273E-18  -1.74283534100516E-15  -1.74436608953479E-15
     -2.64273383188428E-15  -8.00000000000000E+00  -8.00000000000000E+00   0.00000000000000E+00   0.00000000000000E+00
     -2.29838762705735E-17  -1.24637679820752E-14  -1.24867518583457E-14  -2.00375239874923E-15
      1.70000000000000E-01
      8.00000000000000E-01   8.00000000000000E-01   0.00000000000000E+00   0.00000000000000E+00   1.42726089999401E-14
     -8.35194279828606E-18   1.42642570571418E-14   4.63764951756403E-15   0.00000000000000E+00   0.00000000000000E+00
      0.00000000000000E+00   0.00000000000000E+00  -1.53074498792251E-18  -1.73583630439400E-15  -1.73736704938193E-15
     -2.62645912450619E-15  -8.50000000000000E+00  -8.50000000000000E+00   0.00000000000000E+00   0.00000000000000E+00
     -2.29841303250765E-17  -1.25039058774348E-14  -1.25268900077599E-14  -2.01119039305784E-15
      1.80000000000000E-01
      8.00000000000000E-01   8.00000000000000E-01   0.00000000000000E+00   0.00000000000000E+00   1.43052778234425E-14
     -4.57578296402036E-19   1.43048202451461E-14   4.62846414726351E-15   0.00000000000000E+00   0.00000000000000E+00
      0.00000000000000E+00   0.00000000000000E+00  -1.53074139131404E-18  -1.72764696971751E-15  -1.72917771110882E-15
     -2.60960431587660E-15  -9.00000000000000E+00  -9.00000000000000E+00   0.00000000000000E+00   0.00000000000000E+00
     -2.29843926301459E-17  -1.25526581414071E-14  -1.25756425340372E-14  -2.01885983138690E-15
      1.90000000000000E-01
      8.00000000000000E-01   8.00000000000000E-01   0.00000000000000E+00   0.00000000000000E+00   1.43336222347226E-14
     -9.40715911008099E-20   1.43335281631315E-14   4.61893143803698E-15   0.00000000000000E+00   0.00000000000000E+00
      0.00000000000000E+00   0.00000000000000E+00  -1.53073774379777E-18  -1.71837033869874E-15  -1.71990107644254E-15
     -2.59217335071653E-15  -9.50000000000000E+00  -9.50000000000000E+00   0.00000000000000E+00   0.00000000000000E+00
     -2.29846631254230E-17  -1.25906424235636E-14  -1.26136270866890E-14  -2.02675808732045E-15
      2.00000000000000E-01
      8.00000000000000E-01   8.00000000000000E-01   0.00000000000000E+00   0.00000000000000E+00   1.43585422983454E-14
      6.38687925706046E-18   1.43649291776024E-14   4.60904580471129E-15   0.00000000000000E+00   0.00000000000000E+00
      0.00000000000000E+00   0.00000000000000E+00  -1.53073404685986E-18  -1.70789735612822E-15  -1.70942809017508E-15
     -2.57416329341188E-15  -1.00000000000000E+01  -1.00000000000000E+01   0.00000000000000E+00   0.00000000000000E+00
     -2.29849417501086E-17  -1.26325161456772E-14  -1.26555010874273E-14  -2.03488251129942E-15
      2.10000000000000E-01
      8.00000000000000E-01   8.00000000000000E-01   0.00000000000000E+00   0.00000000000000E+00   1.43809577749324E-14
     -2.75654355878766E-18   1.43782012313737E-14   4.59879379465835E-15   0.00000000000000E+00   0.00000000000000E+00
      0.00000000000000E+00   0.00000000000000E+00  -1.53073030334889E-18  -1.69583949012978E-15  -1.69737022043313E-15
     -2.55556339580316E-15  -1.05000000000000E+01  -1.05000000000000E+01   0.00000000000000E+00   0.00000000000000E+00
     -2.29852284418469E-17  -1.26578457824987E-14  -1.26808310109405E-14  -2.04323039885519E-15
      2.20000000000000E-01
      8.00000000000000E-01   8.00000000000000E-01   0.00000000000000E+00   0.00000000000000E+00   1.44015822216201E-14
      1.21402547986433E-17   1.44137224764187E-14   4.58815301278891E-15   0.00000000000000E+00   0.00000000000000E+00
      0.00000000000000E+00   0.00000000000000E+00  -1.53072651362717E-18  -1.68045458489516E-15  -1.68198531140879E-15
     -2.53635405183032E-15  -1.10000000000000E+01  -1.10000000000000E+01   0.00000000000000E+00   0.00000000000000E+00
     -2.29855231356639E-17  -1.27087516418743E-14  -1.27317371650099E-14  -2.05179896095857E-15
      2.30000000000000E-01
      8.00000000000000E-01   8.00000000000000E-01   0.00000000000000E+00   0.00000000000000E+00   1.44208751369750E-14
     -9.83905373286333E-18   1.44110360832421E-14   4.57709236618356E-15   0.00000000000000E+00   0.00000000000000E+00
      0.00000000000000E+00   0.00000000000000E+00  -1.53072267809828E-18  -1.65551330494828E-15  -1.65704402762638E-15
     -2.51650702388441E-15  -1.15000000000000E+01  -1.15000000000000E+01   0.00000000000000E+00   0.00000000000000E+00
     -2.29858257645477E-17  -1.27310062298512E-14  -1.27539920556158E-14  -2.06058534229914E-15
      2.40000000000000E-01
      8.00000000000000E-01   8.00000000000000E-01   0.00000000000000E+00   0.00000000000000E+00   1.44391688518378E-14
     -7.18295011756821E-18   1.44319859017202E-14   4.56557709309191E-15   0.00000000000000E+00   0.00000000000000E+00
      0.00000000000000E+00   0.00000000000000E+00  -1.53071879863834E-18  -1.59966950379061E-15  -1.60120022258924E-15
     -2.49599030528283E-15  -1.20000000000000E+01  -1.20000000000000E+01   0.00000000000000E+00   0.00000000000000E+00
     -2.29861362651608E-17  -1.28077995428658E-14  -1.28307856791310E-14  -2.06958678780908E-15
      2.50000000000000E-01
      8.00000000000000E-01   8.00000000000000E-01   0.00000000000000E+00   0.00000000000000E+00   1.44566763724575E-14
      1.72237075798965E-18   1.44583987432155E-14   4.55358453407179E-15   0.00000000000000E+00   0.00000000000000E+00
      0.00000000000000E+00   0.00000000000000E+00  -1.53071487636109E-18  -1.44005120714937E-15  -1.44158192202573E-15
     -2.47478341983316E-15  -1.25000000000000E+01  -1.25000000000000E+01   0.00000000000000E+00   0.00000000000000E+00
     -2.29864545941393E-17  -1.29938303665956E-14  -1.30168168211898E-14  -2.07880111423861E-15
      2.60000000000000E-01
      8.00000000000000E-01   8.00000000000000E-01   0.00000000000000E+00   0.00000000000000E+00   1.44734350974442E-14
      1.80543381158698E-17   1.44914894355601E-14   4.54113334755719E-15   0.00000000000000E+00   0.00000000000000E+00
      0.00000000000000E+00   0.00000000000000E+00  -1.53071091648563E-18  -9.32953668419349E-16  -9.34484379335835E-16
     -2.45290582580813E-15  -1.30000000000000E+01  -1.30000000000000E+01   0.00000000000000E+00   0.00000000000000E+00
     -2.29867807563274E-17  -1.35340182754679E-14  -1.35570050562242E-14  -2.08822752174905E-15
      2.70000000000000E-01
      8.00000000000000E-01   8.00000000000000E-01   0.00000000000000E+00   0.00000000000000E+00   1.44892592540879E-14
      1.50834270003647E-17   1.45043426810883E-14   4.52830957050177E-15   0.00000000000000E+00   0.00000000000000E+00
      0.00000000000000E+00   0.00000000000000E+00  -1.53070692664939E-18   7.13747122676658E-16   7.12216415750008E-16
     -2.43044234401291E-15  -1.35000000000000E+01  -1.35000000000000E+01   0.00000000000000E+00   0.00000000000000E+00
     -2.29871148270831E-17  -1.51935719820112E-14  -1.52165590968382E-14  -2.09786722648886E-15
      2.80000000000000E-01
      8.00000000000000E-01   8.00000000000000E-01   0.00000000000000E+00   0.00000000000000E+00   1.45037636182608E-14
      9.47429616235948E-18   1.45132379144231E-14   4.51525564068247E-15   0.00000000000000E+00   0.00000000000000E+00
      0.00000000000000E+00   0.00000000000000E+00  -1.53070291513921E-18   5.99221945025176E-15   5.99068874733662E-15
     -2.40753264763113E-15  -1.40000000000000E+01  -1.40000000000000E+01   0.00000000000000E+00   0.00000000000000E+00
     -2.29874569365990E-17  -2.04809392048231E-14  -2.05039266617597E-14  -2.10772299305135E-15
      2.90000000000000E-01
      8.00000000000000E-01   8.00000000000000E-01   0.00000000000000E+00   0.00000000000000E+00   1.45164351382903E-14
     -7.95116940297243E-18   1.45084839688873E-14   4.50212199863447E-15   0.00000000000000E+00   0.00000000000000E+00
      0.00000000000000E+00   0.00000000000000E+00  -1.53069888076737E-18   2.24645056624384E-14   2.24629749635576E-14
     -2.38432431366002E-15  -1.45000000000000E+01  -1.45000000000000E+01   0.00000000000000E+00   0.00000000000000E+00
     -2.29878072199265E-17  -3.69484711252250E-14  -3.69714589324449E-14  -2.11779768497444E-15
      3.00000000000000E-01
      8.00000000000000E-01   8.00000000000000E-01   0.00000000000000E+00   0.00000000000000E+00   1.45266292130189E-14
      1.13514049642909E-17   1.45379806179832E-14   4.48902678298166E-15   0.00000000000000E+00   0.00000000000000E+00
      0.00000000000000E+00   0.00000000000000E+00  -1.53069477551724E-18   7.22233701665990E-14   7.22218394718235E-14
     -2.36093362463229E-15  -1.50000000000000E+01  -1.50000000000000E+01   0.00000000000000E+00   0.00000000000000E+00
     -2.29881657784813E-17  -8.67368319240281E-14  -8.67598200898066E-14  -2.12809315834938E-15
      3.10000000000000E-01
      8.00000000000000E-01   8.00000000000000E-01   0.00000000000000E+00   0.00000000000000E+00   1.45333890273676E-14
      1.64089058765643E-17   1.45497979332441E-14   4.47604812944925E-15   0.00000000000000E+00   0.00000000000000E+00
      0.00000000000000E+00   0.00000000000000E+00  -1.53069038096002E-18   2.17337070433074E-13   2.17335539742693E-13
     -2.33743801853851E-15  -1.55000000000000E+01  -1.55000000000000E+01   0.00000000000000E+00   0.00000000000000E+00
     -2.29885326745112E-17  -2.31862349143263E-13  -2.31885337675937E-13  -2.13861011091073E-15
      3.20000000000000E-01
      8.00000000000000E-01   8.00000000000000E-01   0.00000000000000E+00   0.00000000000000E+00   1.45349840985133E-14
     -1.19961435669860E-17   1.45229879549463E-14   4.46323516040421E-15   0.00000000000000E+00   0.00000000000000E+00
      0.00000000000000E+00   0.00000000000000E+00  -1.53068488923804E-18   6.25281327793268E-13   6.25279797108379E-13
     -2.31388671295125E-15  -1.60000000000000E+01  -1.60000000000000E+01   0.00000000000000E+00   0.00000000000000E+00
     -2.29889079435623E-17  -6.39779796155378E-13  -6.39802785063322E-13  -2.14934844745296E-15
      3.30000000000000E-01
      8.00000000000000E-01   8.00000000000000E-01   0.00000000000000E+00   0.00000000000000E+00   1.45278687991723E-14
      2.02680756893716E-17   1.45481368748617E-14   4.45062111205440E-15   0.00000000000000E+00   0.00000000000000E+00
      0.00000000000000E+00   0.00000000000000E+00  -1.53067572745192E-18   1.72943708839545E-12   1.72943555771972E-12
     -2.29031338798273E-15  -1.65000000000000E+01  -1.65000000000000E+01   0.00000000000000E+00   0.00000000000000E+00
     -2.29892916098353E-17  -1.74396070530297E-12  -1.74398369459458E-12  -2.16030772407169E-15
      3.40000000000000E-01
      8.00000000000000E-01   8.00000000000000E-01   0.00000000000000E+00   0.00000000000000E+00   1.45044063046790E-14
     -5.71454696941408E-18   1.44986917577096E-14   4.43823329529961E-15   0.00000000000000E+00   0.00000000000000E+00
      0.00000000000000E+00   0.00000000000000E+00  -1.53065540623994E-18   4.60339787880209E-12   4.60339634814668E-12
     -2.26674569826982E-15  -1.70000000000000E+01  -1.70000000000000E+01   0.00000000000000E+00   0.00000000000000E+00
     -2.29896837018957E-17  -4.61787205022069E-12  -4.61789503990440E-12  -2.17148759702979E-15
      3.50000000000000E-01
      8.00000000000000E-01   8.00000000000000E-01   0.00000000000000E+00   0.00000000000000E+00   1.44483666007926E-14
     -1.36382710853475E-18   1.44470027736841E-14   4.42610058031072E-15   0.00000000000000E+00   0.00000000000000E+00
      0.00000000000000E+00   0.00000000000000E+00  -1.53060411059272E-18   1.17871079287591E-11   1.17871063981550E-11
     -2.24321215605885E-15  -1.75000000000000E+01  -1.75000000000000E+01   0.00000000000000E+00   0.00000000000000E+00
     -2.29900842739858E-17  -1.18015304108444E-11  -1.18015534009286E-11  -2.18288842425186E-15
      3.60000000000000E-01
      8.00000000000000E-01   8.00000000000000E-01   0.00000000000000E+00   0.00000000000000E+00   1.43274818209807E-14
      1.84054502905801E-17   1.43458872712712E-14   4.41426040810003E-15   0.00000000000000E+00   0.00000000000000E+00