DF-ISE text

Info {
  version   = 1.0
  type      = xyplot
  datasets  = [
    "time"
    "Ntop OuterVoltage" "Ntop InnerVoltage" "Ntop QuasiFermiPotential" "Ntop DisplacementCurrent" "Ntop eCurrent"
    "Ntop hCurrent" "Ntop TotalCurrent" "Ntop Charge" "Ptop OuterVoltage" "Ptop InnerVoltage"
    "Ptop QuasiFermiPotential" "Ptop DisplacementCurrent" "Ptop eCurrent" "Ptop hCurrent" "Ptop TotalCurrent"
    "Ptop Charge" "Pbot OuterVoltage" "Pbot InnerVoltage" "Pbot QuasiFermiPotential" "Pbot DisplacementCurrent"
    "Pbot eCurrent" "Pbot hCurrent" "Pbot TotalCurrent" "Pbot Charge" ]
  functions = [
    Time
    OuterVoltage InnerVoltage QuasiFermiPotential DisplacementCurrent eCurrent
    hCurrent TotalCurrent Charge OuterVoltage InnerVoltage
    QuasiFermiPotential DisplacementCurrent eCurrent hCurrent TotalCurrent
    Charge OuterVoltage InnerVoltage QuasiFermiPotential DisplacementCurrent
    eCurrent hCurrent TotalCurrent Charge ]
}

Data {
      0.00000000000000E+00
      0.00000000000000E+00   0.00000000000000E+00   0.00000000000000E+00   0.00000000000000E+00  -1.43392593100203E-23
     -2.57927403466645E-17  -2.57927546859239E-17   3.48213650012178E-15   0.00000000000000E+00   0.00000000000000E+00
      0.00000000000000E+00   0.00000000000000E+00   1.43393007654485E-23  -1.15694263655355E-19  -1.15679924354589E-19
     -1.57529520486937E-15   0.00000000000000E+00   0.00000000000000E+00   0.00000000000000E+00   0.00000000000000E+00
     -4.12957376022351E-29   2.59084346103197E-17   2.59084346102784E-17  -1.90684129525242E-15
      0.00000000000000E+00
      0.00000000000000E+00   0.00000000000000E+00   0.00000000000000E+00   0.00000000000000E+00   1.45202553941147E-22
      1.25769232464110E-19   1.25914435018051E-19   3.48213649720853E-15   0.00000000000000E+00   0.00000000000000E+00
      0.00000000000000E+00   0.00000000000000E+00  -1.45202548354408E-22   1.35339549155840E-20   1.33887523672296E-20
     -1.57529520195610E-15   0.00000000000000E+00   0.00000000000000E+00   0.00000000000000E+00   0.00000000000000E+00
     -7.04204870441189E-31  -1.39303187384577E-19  -1.39303187385281E-19  -1.90684129525242E-15
      1.00000000000000E-01
      8.00000000000000E-02   8.00000000000000E-02   0.00000000000000E+00   0.00000000000000E+00   1.31121535083373E-15
     -8.37916435967248E-20   1.31113155919013E-15   3.60990153310980E-15   0.00000000000000E+00   0.00000000000000E+00
      0.00000000000000E+00   0.00000000000000E+00  -1.80515446565882E-18  -1.62536049729976E-16  -1.64341204195635E-16
     -1.70231321280859E-15   0.00000000000000E+00   0.00000000000000E+00   0.00000000000000E+00   0.00000000000000E+00
     -2.28697587555005E-17  -1.12392059623900E-15  -1.14679035499450E-15  -1.90758832030121E-15
      2.00000000000000E-01
      1.60000000000000E-01   1.60000000000000E-01   0.00000000000000E+00   0.00000000000000E+00   1.97173746598975E-15
      1.90247357939550E-19   1.97192771334769E-15   3.73542819964798E-15   0.00000000000000E+00   0.00000000000000E+00
      0.00000000000000E+00   0.00000000000000E+00  -1.88236873996697E-18  -2.47190438862548E-16  -2.49072807602515E-16
     -1.82709315759387E-15   0.00000000000000E+00   0.00000000000000E+00   0.00000000000000E+00   0.00000000000000E+00
     -2.29805923666713E-17  -1.69987431337850E-15  -1.72285490574518E-15  -1.90833504205410E-15
      3.00000000000000E-01
      2.40000000000000E-01   2.40000000000000E-01   0.00000000000000E+00   0.00000000000000E+00   2.51347989486630E-15
      5.66219009183974E-19   2.51404611387548E-15   3.85916927011953E-15   0.00000000000000E+00   0.00000000000000E+00
      0.00000000000000E+00   0.00000000000000E+00  -1.88571182627635E-18  -3.24721547568837E-16  -3.26607259395114E-16
     -1.95008758715459E-15   0.00000000000000E+00   0.00000000000000E+00   0.00000000000000E+00   0.00000000000000E+00
     -2.29806739050940E-17  -2.16445818057528E-15  -2.18743885448037E-15  -1.90908168296492E-15
      4.00000000000000E-01
      3.20000000000000E-01   3.20000000000000E-01   0.00000000000000E+00   0.00000000000000E+00   3.00131881585113E-15
      6.94258058718774E-19   3.00201307390985E-15   3.98139196593289E-15   0.00000000000000E+00   0.00000000000000E+00
      0.00000000000000E+00   0.00000000000000E+00  -1.88605914929313E-18  -4.03274853052734E-16  -4.05160912202028E-16
     -2.07156371131775E-15   0.00000000000000E+00   0.00000000000000E+00   0.00000000000000E+00   0.00000000000000E+00
     -2.29806983314433E-17  -2.57387146337638E-15  -2.59685216170782E-15  -1.90982825461514E-15
      5.00000000000000E-01
      4.00000000000000E-01   4.00000000000000E-01   0.00000000000000E+00   0.00000000000000E+00   3.44798818051098E-15
      1.23091913231208E-18   3.44921909964329E-15   4.10222882575059E-15   0.00000000000000E+00   0.00000000000000E+00
      0.00000000000000E+00   0.00000000000000E+00  -1.88630463725393E-18  -4.75783361553061E-16  -4.77669666190314E-16
     -2.19165413677031E-15   0.00000000000000E+00   0.00000000000000E+00   0.00000000000000E+00   0.00000000000000E+00
     -2.29807233121636E-17  -2.94856871014082E-15  -2.97154943345298E-15  -1.91057468898027E-15
      6.00000000000000E-01
      4.80000000000000E-01   4.80000000000000E-01   0.00000000000000E+00   0.00000000000000E+00   3.85848900730811E-15
     -3.24515170620351E-19   3.85816449213749E-15   4.22170546159724E-15   0.00000000000000E+00   0.00000000000000E+00
      0.00000000000000E+00   0.00000000000000E+00  -1.88653195580672E-18  -5.36636140727600E-16  -5.38522672683407E-16
     -2.31038456410809E-15   0.00000000000000E+00   0.00000000000000E+00   0.00000000000000E+00   0.00000000000000E+00
     -2.29807483072495E-17  -3.29666107114684E-15  -3.31964181945409E-15  -1.91132089748914E-15
      7.00000000000000E-01
      5.60000000000000E-01   5.60000000000000E-01   0.00000000000000E+00   0.00000000000000E+00   4.24311076195551E-15
      1.03183519274049E-19   4.24321394547479E-15   4.33975454505816E-15   0.00000000000000E+00   0.00000000000000E+00
      0.00000000000000E+00   0.00000000000000E+00  -1.88674314608133E-18  -5.90597420167659E-16  -5.92484163313740E-16
     -2.42768774983631E-15   0.00000000000000E+00   0.00000000000000E+00   0.00000000000000E+00   0.00000000000000E+00
     -2.29807732992614E-17  -3.62774900886179E-15  -3.65072978216105E-15  -1.91206679522185E-15
      8.00000000000000E-01
      6.40000000000000E-01   6.40000000000000E-01   0.00000000000000E+00   0.00000000000000E+00   4.60854761637106E-15
      3.60343296954891E-19   4.60890795966801E-15   4.45622281621668E-15   0.00000000000000E+00   0.00000000000000E+00
      0.00000000000000E+00   0.00000000000000E+00  -1.88694197052589E-18  -6.42218406897746E-16  -6.44105348868272E-16
     -2.54341050789584E-15   0.00000000000000E+00   0.00000000000000E+00   0.00000000000000E+00   0.00000000000000E+00
     -2.29807982847114E-17  -3.94182181251503E-15  -3.96480261079974E-15  -1.91281230832084E-15
      9.00000000000000E-01
      7.20000000000000E-01   7.20000000000000E-01   0.00000000000000E+00   0.00000000000000E+00   4.95884099018327E-15
      1.91826023331183E-19   4.95903281620660E-15   4.57088253376229E-15   0.00000000000000E+00   0.00000000000000E+00
      0.00000000000000E+00   0.00000000000000E+00  -1.88712836470926E-18  -6.93838900409397E-16  -6.95726028774106E-16
     -2.65732516155637E-15   0.00000000000000E+00   0.00000000000000E+00   0.00000000000000E+00   0.00000000000000E+00
     -2.29808232610849E-17  -4.24032596417141E-15  -4.26330678743250E-15  -1.91355737220592E-15
      1.00000000000000E+00
      8.00000000000000E-01   8.00000000000000E-01   0.00000000000000E+00   0.00000000000000E+00   5.29728753010772E-15
      1.22941294333345E-18   5.29851694305105E-15   4.68347238568548E-15   0.00000000000000E+00   0.00000000000000E+00
      0.00000000000000E+00   0.00000000000000E+00  -1.88730393838730E-18  -7.47708562141569E-16  -7.49595866079956E-16
     -2.76917046371807E-15   0.00000000000000E+00   0.00000000000000E+00   0.00000000000000E+00   0.00000000000000E+00
     -2.29808482259361E-17  -4.52594022874515E-15  -4.54892107697108E-15  -1.91430192196740E-15
      0.00000000000000E+00
      8.00000000000000E-01   8.00000000000000E-01   0.00000000000000E+00   0.00000000000000E+00   5.29728753022018E-15
      2.28830498396204E-19   5.29751636071858E-15   4.68347238568547E-15   0.00000000000000E+00   0.00000000000000E+00
      0.00000000000000E+00   0.00000000000000E+00  -1.88730405089315E-18  -7.47715172770767E-16  -7.49602476821660E-16
     -2.76917046371808E-15   0.00000000000000E+00   0.00000000000000E+00   0.00000000000000E+00   0.00000000000000E+00
     -2.29808482259361E-17  -4.52493303567097E-15  -4.54791388389690E-15  -1.91430192196740E-15
      1.00000000000000E-02
      8.00000000000000E-01   8.00000000000000E-01   0.00000000000000E+00   0.00000000000000E+00   6.84329600399319E-15
     -9.76176574851772E-19   6.84231982741834E-15   4.68809894897157E-15   0.00000000000000E+00   0.00000000000000E+00
      0.00000000000000E+00   0.00000000000000E+00  -1.88730404625726E-18  -7.41772316735862E-16  -7.43659620782119E-16
     -2.76915471209781E-15  -5.00000000000000E-01  -5.00000000000000E-01   0.00000000000000E+00   0.00000000000000E+00
     -2.29810088743023E-17  -6.07567919776192E-15  -6.09866020663622E-15  -1.91894423687377E-15
      2.00000000000000E-02
      8.00000000000000E-01   8.00000000000000E-01   0.00000000000000E+00   0.00000000000000E+00   8.12620866537481E-15
      4.32356609333572E-19   8.12664102198414E-15   4.69265372117860E-15   0.00000000000000E+00   0.00000000000000E+00
      0.00000000000000E+00   0.00000000000000E+00  -1.88730402705957E-18  -7.37615837771003E-16  -7.39503141798063E-16
     -2.76908367827426E-15  -1.00000000000000E+00  -1.00000000000000E+00   0.00000000000000E+00   0.00000000000000E+00
     -2.29811594057505E-17  -7.36415672078032E-15  -7.38713788018607E-15  -1.92357004290434E-15
      3.00000000000000E-02
      8.00000000000000E-01   8.00000000000000E-01   0.00000000000000E+00   0.00000000000000E+00   9.23292924117622E-15
      7.69496845384145E-19   9.23369873802160E-15   4.69701282939639E-15   0.00000000000000E+00   0.00000000000000E+00
      0.00000000000000E+00   0.00000000000000E+00  -1.88730395399347E-18  -7.35132313979911E-16  -7.37019617933905E-16
     -2.76882178296555E-15  -1.50000000000000E+00  -1.50000000000000E+00   0.00000000000000E+00   0.00000000000000E+00
     -2.29813148165341E-17  -8.47369780527115E-15  -8.49667912008769E-15  -1.92819104643085E-15
      4.00000000000000E-02
      8.00000000000000E-01   8.00000000000000E-01   0.00000000000000E+00   0.00000000000000E+00   1.01741846652726E-14
      1.05914924584862E-18   1.01752438145184E-14   4.70087838975704E-15   0.00000000000000E+00   0.00000000000000E+00
      0.00000000000000E+00   0.00000000000000E+00  -1.88730373634475E-18  -7.34726798117389E-16  -7.36614101853734E-16
     -2.76803687623919E-15  -2.00000000000000E+00  -2.00000000000000E+00   0.00000000000000E+00   0.00000000000000E+00
     -2.29814713783447E-17  -9.41564824128635E-15  -9.43862971266469E-15  -1.93284151351785E-15
      5.00000000000000E-02
      8.00000000000000E-01   8.00000000000000E-01   0.00000000000000E+00   0.00000000000000E+00   1.09092434543201E-14
      2.19486725804596E-18   1.09114383215782E-14   4.70374098766319E-15   0.00000000000000E+00   0.00000000000000E+00
      0.00000000000000E+00   0.00000000000000E+00  -1.88730321525117E-18  -7.37513158609664E-16  -7.39400461824915E-16
     -2.76615122359494E-15  -2.50000000000000E+00  -2.50000000000000E+00   0.00000000000000E+00   0.00000000000000E+00
     -2.29816313915312E-17  -1.01490562283617E-14  -1.01720378597533E-14  -1.93758976406824E-15
      6.00000000000000E-02
      8.00000000000000E-01   8.00000000000000E-01   0.00000000000000E+00   0.00000000000000E+00   1.14804945744054E-14
      3.67498338966203E-19   1.14808620727444E-14   4.70491855822909E-15   0.00000000000000E+00   0.00000000000000E+00
      0.00000000000000E+00   0.00000000000000E+00  -1.88730219859916E-18  -7.45190633642630E-16  -7.47077935841229E-16
     -2.76243163852589E-15  -3.00000000000000E+00  -3.00000000000000E+00   0.00000000000000E+00   0.00000000000000E+00
     -2.29817965864884E-17  -1.07108023403167E-14  -1.07337841369032E-14  -1.94248691970322E-15
      7.00000000000000E-02
      8.00000000000000E-01   8.00000000000000E-01   0.00000000000000E+00   0.00000000000000E+00   1.19629479661446E-14
     -8.19250682785425E-19   1.19621287154619E-14   4.70394859528003E-15   0.00000000000000E+00   0.00000000000000E+00
      0.00000000000000E+00   0.00000000000000E+00  -1.88730058428664E-18  -7.60030559097697E-16  -7.61917859681983E-16
     -2.75638273671813E-15  -3.50000000000000E+00  -3.50000000000000E+00   0.00000000000000E+00   0.00000000000000E+00
     -2.29819680849745E-17  -1.11772288876949E-14  -1.12002108557799E-14  -1.94756585856191E-15
      8.00000000000000E-02
      8.00000000000000E-01   8.00000000000000E-01   0.00000000000000E+00   0.00000000000000E+00   1.23414506761942E-14
      6.71568426772677E-18   1.23481663604619E-14   4.70097892155535E-15   0.00000000000000E+00   0.00000000000000E+00
      0.00000000000000E+00   0.00000000000000E+00  -1.88729845376008E-18  -7.84057069188220E-16  -7.85944367641980E-16
     -2.74812554734073E-15  -4.00000000000000E+00  -4.00000000000000E+00   0.00000000000000E+00   0.00000000000000E+00
     -2.29821468081648E-17  -1.15392398460117E-14  -1.15622219928199E-14  -1.95285337421462E-15
      9.00000000000000E-02
      8.00000000000000E-01   8.00000000000000E-01   0.00000000000000E+00   0.00000000000000E+00   1.26344754831579E-14
     -3.66141579599195E-18   1.26308140673619E-14   4.69653191968765E-15   0.00000000000000E+00   0.00000000000000E+00
      0.00000000000000E+00   0.00000000000000E+00  -1.88729597989792E-18  -8.16095617313844E-16  -8.17982913293742E-16
     -2.73816270312282E-15  -4.50000000000000E+00  -4.50000000000000E+00   0.00000000000000E+00   0.00000000000000E+00
     -2.29823334432401E-17  -1.17898488206249E-14  -1.18128311540682E-14  -1.95836921656484E-15
      1.00000000000000E-01
      8.00000000000000E-01   8.00000000000000E-01   0.00000000000000E+00   0.00000000000000E+00   1.28542750611714E-14
     -1.02766568148115E-18   1.28532473954899E-14   4.69106498201535E-15   0.00000000000000E+00   0.00000000000000E+00
      0.00000000000000E+00   0.00000000000000E+00  -1.88729329342159E-18  -8.47901533332060E-16  -8.49788826625482E-16
     -2.72694061365971E-15  -5.00000000000000E+00  -5.00000000000000E+00   0.00000000000000E+00   0.00000000000000E+00
     -2.29825283838877E-17  -1.19804760404805E-14  -1.20034585688644E-14  -1.96412436835564E-15
      1.10000000000000E-01
      8.00000000000000E-01   8.00000000000000E-01   0.00000000000000E+00   0.00000000000000E+00   1.30105994875642E-14
     -1.45913642850332E-18   1.30091403511357E-14   4.68485752165573E-15   0.00000000000000E+00   0.00000000000000E+00
      0.00000000000000E+00   0.00000000000000E+00  -1.88729046663805E-18  -8.69301763176500E-16  -8.71189053643138E-16
     -2.71473432496942E-15  -5.50000000000000E+00  -5.50000000000000E+00   0.00000000000000E+00   0.00000000000000E+00
     -2.29827318018212E-17  -1.21149685656907E-14  -1.21379512974926E-14  -1.97012319668632E-15
      1.20000000000000E-01
      8.00000000000000E-01   8.00000000000000E-01   0.00000000000000E+00   0.00000000000000E+00   1.31204857757196E-14
     -4.36869731758363E-18   1.31161170784020E-14   4.67806757626819E-15   0.00000000000000E+00   0.00000000000000E+00
      0.00000000000000E+00   0.00000000000000E+00  -1.88728753549478E-18  -8.79352127101957E-16  -8.81239414637452E-16
     -2.70170113238458E-15  -6.00000000000000E+00  -6.00000000000000E+00   0.00000000000000E+00   0.00000000000000E+00
     -2.29829437472054E-17  -1.22118947200173E-14  -1.22348776637645E-14  -1.97636644388361E-15
      1.30000000000000E-01
      8.00000000000000E-01   8.00000000000000E-01   0.00000000000000E+00   0.00000000000000E+00   1.32018438734415E-14
      5.20341347942359E-18   1.32070472869209E-14   4.67078760973350E-15   0.00000000000000E+00   0.00000000000000E+00
      0.00000000000000E+00   0.00000000000000E+00  -1.88728452093791E-18  -8.82056250237584E-16  -8.83943534758522E-16
     -2.68793453644869E-15  -6.50000000000000E+00  -6.50000000000000E+00   0.00000000000000E+00   0.00000000000000E+00
     -2.29831642107445E-17  -1.23001205879517E-14  -1.23231037521624E-14  -1.98285307328479E-15
      1.40000000000000E-01
      8.00000000000000E-01   8.00000000000000E-01   0.00000000000000E+00   0.00000000000000E+00   1.32659806516030E-14
     -5.74641450250337E-18   1.32602342371005E-14   4.66307488566215E-15   0.00000000000000E+00   0.00000000000000E+00
      0.00000000000000E+00   0.00000000000000E+00  -1.88728143522944E-18  -8.80629168774038E-16  -8.82516450209268E-16
     -2.67349369943298E-15  -7.00000000000000E+00  -7.00000000000000E+00   0.00000000000000E+00   0.00000000000000E+00
     -2.29833931545490E-17  -1.23547343937367E-14  -1.23777177868912E-14  -1.98958118622916E-15
      1.50000000000000E-01
      8.00000000000000E-01   8.00000000000000E-01   0.00000000000000E+00   0.00000000000000E+00   1.33187632983827E-14
      7.26519834996452E-18   1.33260284967327E-14   4.65496638307931E-15   0.00000000000000E+00   0.00000000000000E+00
      0.00000000000000E+00   0.00000000000000E+00  -1.88727828643708E-18  -8.76712959462560E-16  -8.78600237748997E-16
     -2.65841791747758E-15  -7.50000000000000E+00  -7.50000000000000E+00   0.00000000000000E+00   0.00000000000000E+00
     -2.29836305270646E-17  -1.24244446284567E-14  -1.24474282589837E-14  -1.99654846560173E-15
      1.60000000000000E-01
      8.00000000000000E-01   8.00000000000000E-01   0.00000000000000E+00   0.00000000000000E+00   1.33632235219414E-14
      1.05320618604701E-17   1.33737555838019E-14   4.64648623063580E-15   0.00000000000000E+00   0.00000000000000E+00
      0.00000000000000E+00   0.00000000000000E+00  -1.88727508139368E-18  -8.71047890986143E-16  -8.72935166067537E-16
     -2.64273383188652E-15  -8.00000000000000E+00  -8.00000000000000E+00   0.00000000000000E+00   0.00000000000000E+00
     -2.29838762705742E-17  -1.24778365414638E-14  -1.25008204177343E-14  -2.00375239874927E-15
      1.70000000000000E-01
      8.00000000000000E-01   8.00000000000000E-01   0.00000000000000E+00   0.00000000000000E+00   1.34011709862775E-14
     -1.17002518295093E-17   1.33894707344480E-14   4.63764951756624E-15   0.00000000000000E+00   0.00000000000000E+00
      0.00000000000000E+00   0.00000000000000E+00  -1.88727182393100E-18  -8.64036477065185E-16  -8.65923748889116E-16
     -2.62645912450842E-15  -8.50000000000000E+00  -8.50000000000000E+00   0.00000000000000E+00   0.00000000000000E+00
     -2.29841303250764E-17  -1.25005628552338E-14  -1.25235469855589E-14  -2.01119039305784E-15
      1.80000000000000E-01
      8.00000000000000E-01   8.00000000000000E-01   0.00000000000000E+00   0.00000000000000E+00   1.34338398113608E-14
     -3.62796569929655E-18   1.34302118456615E-14   4.62846414726569E-15   0.00000000000000E+00   0.00000000000000E+00
      0.00000000000000E+00   0.00000000000000E+00  -1.88726851807733E-18  -8.55853628188127E-16  -8.57740896706205E-16
     -2.60960431587881E-15  -9.00000000000000E+00  -9.00000000000000E+00   0.00000000000000E+00   0.00000000000000E+00
     -2.29843926301459E-17  -1.25494865563251E-14  -1.25724709489553E-14  -2.01885983138690E-15
      1.90000000000000E-01
      8.00000000000000E-01   8.00000000000000E-01   0.00000000000000E+00   0.00000000000000E+00   1.34621842243062E-14
      5.61064061557382E-18   1.34677948649218E-14   4.61893143803919E-15   0.00000000000000E+00   0.00000000000000E+00
      0.00000000000000E+00   0.00000000000000E+00  -1.88726516600474E-18  -8.46580227240033E-16  -8.48467492406038E-16
     -2.59217335071873E-15  -9.50000000000000E+00  -9.50000000000000E+00   0.00000000000000E+00   0.00000000000000E+00
     -2.29846631254232E-17  -1.25963427093903E-14  -1.26193273725158E-14  -2.02675808732047E-15
      2.00000000000000E-01
      8.00000000000000E-01   8.00000000000000E-01   0.00000000000000E+00   0.00000000000000E+00   1.34871042896884E-14
      3.55934621399536E-18   1.34906636359024E-14   4.60904580471348E-15   0.00000000000000E+00   0.00000000000000E+00
      0.00000000000000E+00   0.00000000000000E+00  -1.88726177050220E-18  -8.36114714798049E-16  -8.38001976568551E-16
     -2.57416329341406E-15  -1.00000000000000E+01  -1.00000000000000E+01   0.00000000000000E+00   0.00000000000000E+00
     -2.29849417501092E-17  -1.26296767175838E-14  -1.26526616593339E-14  -2.03488251129942E-15
      2.10000000000000E-01
      8.00000000000000E-01   8.00000000000000E-01   0.00000000000000E+00   0.00000000000000E+00   1.35095197681397E-14
      3.19878819740167E-18   1.35127185563371E-14   4.59879379466052E-15   0.00000000000000E+00   0.00000000000000E+00
      0.00000000000000E+00   0.00000000000000E+00  -1.88725833396172E-18  -8.24053562806820E-16  -8.25940821140782E-16
     -2.55556339580532E-15  -1.05000000000000E+01  -1.05000000000000E+01   0.00000000000000E+00   0.00000000000000E+00
     -2.29852284418468E-17  -1.26637925067545E-14  -1.26867777351963E-14  -2.04323039885521E-15
      2.20000000000000E-01
      8.00000000000000E-01   8.00000000000000E-01   0.00000000000000E+00   0.00000000000000E+00   1.35301442168101E-14
      9.83180803432682E-18   1.35399760248444E-14   4.58815301279105E-15   0.00000000000000E+00   0.00000000000000E+00
      0.00000000000000E+00   0.00000000000000E+00  -1.88725485596474E-18  -8.08666006085141E-16  -8.10553260941106E-16
     -2.53635405183247E-15  -1.10000000000000E+01  -1.10000000000000E+01   0.00000000000000E+00   0.00000000000000E+00
     -2.29855231356634E-17  -1.27064372407676E-14  -1.27294227639033E-14  -2.05179896095857E-15
      2.30000000000000E-01
      8.00000000000000E-01   8.00000000000000E-01   0.00000000000000E+00   0.00000000000000E+00   1.35494371342873E-14
     -3.52976679552365E-18   1.35459073674918E-14   4.57709236618572E-15   0.00000000000000E+00   0.00000000000000E+00
      0.00000000000000E+00   0.00000000000000E+00  -1.88725133860815E-18  -7.83717030784037E-16  -7.85604282122645E-16
     -2.51650702388656E-15  -1.15000000000000E+01  -1.15000000000000E+01   0.00000000000000E+00   0.00000000000000E+00
     -2.29858257645474E-17  -1.27373172596046E-14  -1.27603030853692E-14  -2.06058534229916E-15
      2.40000000000000E-01
      8.00000000000000E-01   8.00000000000000E-01   0.00000000000000E+00   0.00000000000000E+00   1.35677308514334E-14
     -8.97273231861223E-18   1.35587581191148E-14   4.56557709309405E-15   0.00000000000000E+00   0.00000000000000E+00
      0.00000000000000E+00   0.00000000000000E+00  -1.88724778184352E-18  -7.27895997581368E-16  -7.29783245363212E-16
     -2.49599030528496E-15  -1.20000000000000E+01  -1.20000000000000E+01   0.00000000000000E+00   0.00000000000000E+00
     -2.29861362651605E-17  -1.28059887374864E-14  -1.28289748737516E-14  -2.06958678780908E-15
      2.50000000000000E-01
      8.00000000000000E-01   8.00000000000000E-01   0.00000000000000E+00   0.00000000000000E+00   1.35852383745217E-14
      2.65569957393952E-19   1.35855039444791E-14   4.55358453407388E-15   0.00000000000000E+00   0.00000000000000E+00
      0.00000000000000E+00   0.00000000000000E+00  -1.88724418759283E-18  -5.68246378983494E-16  -5.70133623171087E-16
     -2.47478341983527E-15  -1.25000000000000E+01  -1.25000000000000E+01   0.00000000000000E+00   0.00000000000000E+00
     -2.29864545941391E-17  -1.29923838667139E-14  -1.30153703213080E-14  -2.07880111423861E-15
      2.60000000000000E-01
      8.00000000000000E-01   8.00000000000000E-01   0.00000000000000E+00   0.00000000000000E+00   1.36019971021752E-14
      1.69405405419430E-17   1.36189376427172E-14   4.54113334755926E-15   0.00000000000000E+00   0.00000000000000E+00
      0.00000000000000E+00   0.00000000000000E+00  -1.88724055987911E-18  -6.11596872066150E-17  -6.30469277664941E-17
     -2.45290582581021E-15  -1.30000000000000E+01  -1.30000000000000E+01   0.00000000000000E+00   0.00000000000000E+00
     -2.29867807563276E-17  -1.35329039341944E-14  -1.35558907149507E-14  -2.08822752174905E-15
      2.70000000000000E-01
      8.00000000000000E-01   8.00000000000000E-01   0.00000000000000E+00   0.00000000000000E+00   1.36178212616780E-14
      1.43287920652589E-17   1.36321500537433E-14   4.52830957050384E-15   0.00000000000000E+00   0.00000000000000E+00
      0.00000000000000E+00   0.00000000000000E+00  -1.88723690748245E-18   1.58555695661688E-15   1.58366971970940E-15
     -2.43044234401497E-15  -1.35000000000000E+01  -1.35000000000000E+01   0.00000000000000E+00   0.00000000000000E+00
     -2.29871148270833E-17  -1.51928326586256E-14  -1.52158197734527E-14  -2.09786722648886E-15
      2.80000000000000E-01
      8.00000000000000E-01   8.00000000000000E-01   0.00000000000000E+00   0.00000000000000E+00   1.36323256288693E-14
      9.18254355216082E-18   1.36415081724214E-14   4.51525564068451E-15   0.00000000000000E+00   0.00000000000000E+00
      0.00000000000000E+00   0.00000000000000E+00  -1.88723323643180E-18   6.86400570761652E-15   6.86211847438008E-15
     -2.40753264763316E-15  -1.40000000000000E+01  -1.40000000000000E+01   0.00000000000000E+00   0.00000000000000E+00
     -2.29874569365985E-17  -2.04806391898649E-14  -2.05036266468015E-14  -2.10772299305135E-15
      2.90000000000000E-01
      8.00000000000000E-01   8.00000000000000E-01   0.00000000000000E+00   0.00000000000000E+00   1.36449971520340E-14
     -8.00843933720520E-18   1.36369887126968E-14   4.50212199863649E-15   0.00000000000000E+00   0.00000000000000E+00
      0.00000000000000E+00   0.00000000000000E+00  -1.88722954371888E-18   2.33362717307324E-14   2.33343845011886E-14
     -2.38432431366204E-15  -1.45000000000000E+01  -1.45000000000000E+01   0.00000000000000E+00   0.00000000000000E+00
     -2.29878072199260E-17  -3.69483854066655E-14  -3.69713732138854E-14  -2.11779768497444E-15
      3.00000000000000E-01
      8.00000000000000E-01   8.00000000000000E-01   0.00000000000000E+00   0.00000000000000E+00   1.36551912299812E-14
      1.15597058835981E-17   1.36667509358648E-14   4.48902678298365E-15   0.00000000000000E+00   0.00000000000000E+00
      0.00000000000000E+00   0.00000000000000E+00  -1.88722578048757E-18   7.30951706745016E-14   7.30932834487211E-14
     -2.36093362463430E-15  -1.50000000000000E+01  -1.50000000000000E+01   0.00000000000000E+00   0.00000000000000E+00
     -2.29881657784817E-17  -8.67370462188072E-14  -8.67600343845856E-14  -2.12809315834938E-15
      3.10000000000000E-01
      8.00000000000000E-01   8.00000000000000E-01   0.00000000000000E+00   0.00000000000000E+00   1.36619510476198E-14
      1.67032691682906E-17   1.36786543167881E-14   4.47604812945126E-15   0.00000000000000E+00   0.00000000000000E+00
      0.00000000000000E+00   0.00000000000000E+00  -1.88722172469052E-18   2.18208870595831E-13   2.18206983374107E-13
     -2.33743801854050E-15  -1.55000000000000E+01  -1.55000000000000E+01   0.00000000000000E+00   0.00000000000000E+00
     -2.29885326745105E-17  -2.31862649158221E-13  -2.31885637690895E-13  -2.13861011091073E-15
      3.20000000000000E-01
      8.00000000000000E-01   8.00000000000000E-01   0.00000000000000E+00   0.00000000000000E+00   1.36635461221760E-14
     -1.12770207347716E-17   1.36522691014412E-14   4.46323516040620E-15   0.00000000000000E+00   0.00000000000000E+00
      0.00000000000000E+00   0.00000000000000E+00  -1.88721656491064E-18   6.26153099640931E-13   6.26151212424366E-13
     -2.31388671295324E-15  -1.60000000000000E+01  -1.60000000000000E+01   0.00000000000000E+00   0.00000000000000E+00
     -2.29889079435612E-17  -6.39780492617864E-13  -6.39803481525808E-13  -2.14934844745296E-15
      3.30000000000000E-01
      8.00000000000000E-01   8.00000000000000E-01   0.00000000000000E+00   0.00000000000000E+00   1.36564308265708E-14
      2.10558102379004E-17   1.36774866368087E-14   4.45062111205640E-15   0.00000000000000E+00   0.00000000000000E+00
      0.00000000000000E+00   0.00000000000000E+00  -1.88720770596780E-18   1.73030888806215E-12   1.73030700085445E-12
     -2.29031338798471E-15  -1.65000000000000E+01  -1.65000000000000E+01   0.00000000000000E+00   0.00000000000000E+00
     -2.29892916098357E-17  -1.74396149819965E-12  -1.74398448749126E-12  -2.16030772407169E-15
      3.40000000000000E-01
      8.00000000000000E-01   8.00000000000000E-01   0.00000000000000E+00   0.00000000000000E+00   1.36329683368401E-14
     -4.72423812472138E-18   1.36282440987154E-14   4.43823329530158E-15   0.00000000000000E+00   0.00000000000000E+00
      0.00000000000000E+00   0.00000000000000E+00  -1.88718763865186E-18   4.60426966875838E-12   4.60426778157074E-12
     -2.26674569827180E-15  -1.70000000000000E+01  -1.70000000000000E+01   0.00000000000000E+00   0.00000000000000E+00
     -2.29896837018959E-17  -4.61787303598575E-12  -4.61789602566945E-12  -2.17148759702979E-15
      3.50000000000000E-01
      8.00000000000000E-01   8.00000000000000E-01   0.00000000000000E+00   0.00000000000000E+00   1.35769286404414E-14
     -3.04547826273778E-19   1.35766240926151E-14   4.42610058031271E-15   0.00000000000000E+00   0.00000000000000E+00
      0.00000000000000E+00   0.00000000000000E+00  -1.88713623170118E-18   1.17879797354543E-11   1.17879778483180E-11
     -2.24321215606084E-15  -1.75000000000000E+01  -1.75000000000000E+01   0.00000000000000E+00   0.00000000000000E+00
     -2.29900842739860E-17  -1.18015314823263E-11  -1.18015544724106E-11  -2.18288842425186E-15
      3.60000000000000E-01
      8.00000000000000E-01   8.00000000000000E-01   0.00000000000000E+00   0.00000000000000E+00   1.34560438765349E-14
      1.96116260663189E-17   1.34756555026012E-14   4.41426040810202E-15   0.00000000000000E+00   0.00000000000000E+00