DF-ISE text

Info {
  version   = 1.0
  type      = xyplot
  datasets  = [
    "time"
    "Ntop OuterVoltage" "Ntop InnerVoltage" "Ntop QuasiFermiPotential" "Ntop DisplacementCurrent" "Ntop eCurrent"
    "Ntop hCurrent" "Ntop TotalCurrent" "Ntop Charge" "Ptop OuterVoltage" "Ptop InnerVoltage"
    "Ptop QuasiFermiPotential" "Ptop DisplacementCurrent" "Ptop eCurrent" "Ptop hCurrent" "Ptop TotalCurrent"
    "Ptop Charge" "Pbot OuterVoltage" "Pbot InnerVoltage" "Pbot QuasiFermiPotential" "Pbot DisplacementCurrent"
    "Pbot eCurrent" "Pbot hCurrent" "Pbot TotalCurrent" "Pbot Charge" ]
  functions = [
    Time
    OuterVoltage InnerVoltage QuasiFermiPotential DisplacementCurrent eCurrent
    hCurrent TotalCurrent Charge OuterVoltage InnerVoltage
    QuasiFermiPotential DisplacementCurrent eCurrent hCurrent TotalCurrent
    Charge OuterVoltage InnerVoltage QuasiFermiPotential DisplacementCurrent
    eCurrent hCurrent TotalCurrent Charge ]
}

Data {
      0.00000000000000E+00
      0.00000000000000E+00   0.00000000000000E+00   0.00000000000000E+00   0.00000000000000E+00  -1.43392593100595E-23
     -2.57927403466645E-17  -2.57927546859239E-17   3.48213650012178E-15   0.00000000000000E+00   0.00000000000000E+00
      0.00000000000000E+00   0.00000000000000E+00   1.43393039543623E-23  -1.15694263658544E-19  -1.15679924354590E-19
     -1.57529520486937E-15   0.00000000000000E+00   0.00000000000000E+00   0.00000000000000E+00   0.00000000000000E+00
     -4.12957376022351E-29   2.59084346103197E-17   2.59084346102784E-17  -1.90684129525242E-15
      0.00000000000000E+00
      0.00000000000000E+00   0.00000000000000E+00   0.00000000000000E+00   0.00000000000000E+00   1.45202553950921E-22
      1.25769232464110E-19   1.25914435018061E-19   3.48213649720853E-15   0.00000000000000E+00   0.00000000000000E+00
      0.00000000000000E+00   0.00000000000000E+00  -1.45202562459405E-22   1.35339549296792E-20   1.33887523672198E-20
     -1.57529520195610E-15   0.00000000000000E+00   0.00000000000000E+00   0.00000000000000E+00   0.00000000000000E+00
     -7.04204870441189E-31  -1.39303187384577E-19  -1.39303187385281E-19  -1.90684129525242E-15
      1.00000000000000E-01
      8.00000000000000E-02   8.00000000000000E-02   0.00000000000000E+00   0.00000000000000E+00   3.38274491186394E-15
     -5.74482677431022E-20   3.38268746359620E-15   3.60990153310483E-15   0.00000000000000E+00   0.00000000000000E+00
      0.00000000000000E+00   0.00000000000000E+00  -8.67726229958888E-19  -2.23504008666350E-15  -2.23590781289346E-15
     -1.70231321280364E-15   0.00000000000000E+00   0.00000000000000E+00   0.00000000000000E+00   0.00000000000000E+00
     -2.28697587554829E-17  -1.12390989194725E-15  -1.14677965070273E-15  -1.90758832030120E-15
      2.00000000000000E-01
      1.60000000000000E-01   1.60000000000000E-01   0.00000000000000E+00   0.00000000000000E+00   5.01128751617367E-15
     -2.07012692053845E-19   5.01108050348162E-15   3.73542819964070E-15   0.00000000000000E+00   0.00000000000000E+00
      0.00000000000000E+00   0.00000000000000E+00  -9.04131884668006E-19  -3.28768577134939E-15  -3.28858990323406E-15
     -1.82709315758661E-15   0.00000000000000E+00   0.00000000000000E+00   0.00000000000000E+00   0.00000000000000E+00
     -2.29805923666714E-17  -1.69951000788089E-15  -1.72249060024756E-15  -1.90833504205409E-15
      3.00000000000000E-01
      2.40000000000000E-01   2.40000000000000E-01   0.00000000000000E+00   0.00000000000000E+00   6.78261205371844E-15
      1.11246287614176E-18   6.78372451659458E-15   3.85916927010922E-15   0.00000000000000E+00   0.00000000000000E+00
      0.00000000000000E+00   0.00000000000000E+00  -9.05908944064184E-19  -4.59482257119531E-15  -4.59572848013937E-15
     -1.95008758714431E-15   0.00000000000000E+00   0.00000000000000E+00   0.00000000000000E+00   0.00000000000000E+00
     -2.29806739050940E-17  -2.16501536255011E-15  -2.18799603645520E-15  -1.90908168296491E-15
      4.00000000000000E-01
      3.20000000000000E-01   3.20000000000000E-01   0.00000000000000E+00   0.00000000000000E+00   8.96850742649061E-15
      6.33781467668931E-19   8.96914120795828E-15   3.98139196591836E-15   0.00000000000000E+00   0.00000000000000E+00
      0.00000000000000E+00   0.00000000000000E+00  -9.06391779777355E-19  -6.37141478678259E-15  -6.37232117856237E-15
     -2.07156371130323E-15   0.00000000000000E+00   0.00000000000000E+00   0.00000000000000E+00   0.00000000000000E+00
     -2.29806983314433E-17  -2.57383933106447E-15  -2.59682002939592E-15  -1.90982825461512E-15
      5.00000000000000E-01
      4.00000000000000E-01   4.00000000000000E-01   0.00000000000000E+00   0.00000000000000E+00   1.09111512907404E-14
      1.04208553423385E-18   1.09121933762746E-14   4.10222882573227E-15   0.00000000000000E+00   0.00000000000000E+00
      0.00000000000000E+00   0.00000000000000E+00  -9.06807764327722E-19  -7.93992999047812E-15  -7.94083679824245E-15
     -2.19165413675202E-15   0.00000000000000E+00   0.00000000000000E+00   0.00000000000000E+00   0.00000000000000E+00
     -2.29807233121637E-17  -2.94837585471998E-15  -2.97135657803214E-15  -1.91057468898025E-15
      6.00000000000000E-01
      4.80000000000000E-01   4.80000000000000E-01   0.00000000000000E+00   0.00000000000000E+00   1.20999957861810E-14
     -4.82018317224725E-19   1.20995137678638E-14   4.22170546157694E-15   0.00000000000000E+00   0.00000000000000E+00
      0.00000000000000E+00   0.00000000000000E+00  -9.07196253097957E-19  -8.77908260788711E-15  -8.77998980414021E-15
     -2.31038456408782E-15   0.00000000000000E+00   0.00000000000000E+00   0.00000000000000E+00   0.00000000000000E+00
     -2.29807483072494E-17  -3.29654321541627E-15  -3.31952396372352E-15  -1.91132089748912E-15
      7.00000000000000E-01
      5.60000000000000E-01   5.60000000000000E-01   0.00000000000000E+00   0.00000000000000E+00   1.28574369056313E-14
     -4.23121715320689E-19   1.28570137839159E-14   4.33975454503690E-15   0.00000000000000E+00   0.00000000000000E+00
      0.00000000000000E+00   0.00000000000000E+00  -9.07559498530265E-19  -9.20589075361332E-15  -9.20679831311185E-15
     -2.42768774981509E-15   0.00000000000000E+00   0.00000000000000E+00   0.00000000000000E+00   0.00000000000000E+00
     -2.29807732992615E-17  -3.62723469750476E-15  -3.65021547080402E-15  -1.91206679522182E-15
      8.00000000000000E-01
      6.40000000000000E-01   6.40000000000000E-01   0.00000000000000E+00   0.00000000000000E+00   1.34550415799807E-14
      1.63026558214943E-19   1.34552046065389E-14   4.45622281619484E-15   0.00000000000000E+00   0.00000000000000E+00
      0.00000000000000E+00   0.00000000000000E+00  -9.07902511931151E-19  -9.48966552872654E-15  -9.49057343123847E-15
     -2.54341050787403E-15   0.00000000000000E+00   0.00000000000000E+00   0.00000000000000E+00   0.00000000000000E+00
     -2.29807982847115E-17  -3.94165037701574E-15  -3.96463117530045E-15  -1.91281230832081E-15
      9.00000000000000E-01
      7.20000000000000E-01   7.20000000000000E-01   0.00000000000000E+00   0.00000000000000E+00   1.39976581917549E-14
     -2.24008203401541E-19   1.39974341835515E-14   4.57088253373996E-15   0.00000000000000E+00   0.00000000000000E+00
      0.00000000000000E+00   0.00000000000000E+00  -9.08225836897838E-19  -9.73363703773155E-15  -9.73454526356845E-15
     -2.65732516153408E-15   0.00000000000000E+00   0.00000000000000E+00   0.00000000000000E+00   0.00000000000000E+00
     -2.29808232610848E-17  -4.23990809672202E-15  -4.26288891998310E-15  -1.91355737220588E-15
      1.00000000000000E+00
      8.00000000000000E-01   8.00000000000000E-01   0.00000000000000E+00   0.00000000000000E+00   1.45260250605342E-14
      1.50575976214297E-18   1.45275308202963E-14   4.68347238566270E-15   0.00000000000000E+00   0.00000000000000E+00
      0.00000000000000E+00   0.00000000000000E+00  -9.08531868919584E-19  -9.97743334986641E-15  -9.97834188173534E-15
     -2.76917046369534E-15   0.00000000000000E+00   0.00000000000000E+00   0.00000000000000E+00   0.00000000000000E+00
     -2.29808482259362E-17  -4.52620809033513E-15  -4.54918893856107E-15  -1.91430192196735E-15
      0.00000000000000E+00
      8.00000000000000E-01   8.00000000000000E-01   0.00000000000000E+00   0.00000000000000E+00   1.45260250606466E-14
     -2.78822242598071E-19   1.45257462384040E-14   4.68347238566270E-15   0.00000000000000E+00   0.00000000000000E+00
      0.00000000000000E+00   0.00000000000000E+00  -9.08531981310945E-19  -9.97742743121079E-15  -9.97833596319210E-15
     -2.76917046369534E-15   0.00000000000000E+00   0.00000000000000E+00   0.00000000000000E+00   0.00000000000000E+00
     -2.29808482259362E-17  -4.52442942698597E-15  -4.54741027521190E-15  -1.91430192196735E-15
      1.00000000000000E-02
      8.00000000000000E-01   8.00000000000000E-01   0.00000000000000E+00   0.00000000000000E+00   1.60720335344165E-14
      8.97630769739643E-19   1.60729311651862E-14   4.68809894894880E-15   0.00000000000000E+00   0.00000000000000E+00
      0.00000000000000E+00   0.00000000000000E+00  -9.08531975873557E-19  -9.97146590587462E-15  -9.97237443785049E-15
     -2.76915471207508E-15  -5.00000000000000E-01  -5.00000000000000E-01   0.00000000000000E+00   0.00000000000000E+00
     -2.29810088743024E-17  -6.07757571846138E-15  -6.10055672733568E-15  -1.91894423687373E-15
      2.00000000000000E-02
      8.00000000000000E-01   8.00000000000000E-01   0.00000000000000E+00   0.00000000000000E+00   1.73549461957711E-14
      5.25407389206394E-19   1.73554716031603E-14   4.69265372115581E-15   0.00000000000000E+00   0.00000000000000E+00
      0.00000000000000E+00   0.00000000000000E+00  -9.08531952213478E-19  -9.96732871633967E-15  -9.96823724829188E-15
     -2.76908367825152E-15  -1.00000000000000E+00  -1.00000000000000E+00   0.00000000000000E+00   0.00000000000000E+00
     -2.29811594057505E-17  -7.36425319546265E-15  -7.38723435486840E-15  -1.92357004290430E-15
      3.00000000000000E-02
      8.00000000000000E-01   8.00000000000000E-01   0.00000000000000E+00   0.00000000000000E+00   1.84616667714697E-14
      3.85802819603606E-19   1.84620525742893E-14   4.69701282937361E-15   0.00000000000000E+00   0.00000000000000E+00
      0.00000000000000E+00   0.00000000000000E+00  -9.08531863964131E-19  -9.96482922783529E-15  -9.96573775969926E-15
     -2.76882178294280E-15  -1.50000000000000E+00  -1.50000000000000E+00   0.00000000000000E+00   0.00000000000000E+00
     -2.29813148165341E-17  -8.47333349977354E-15  -8.49631481459007E-15  -1.92819104643080E-15
      4.00000000000000E-02
      8.00000000000000E-01   8.00000000000000E-01   0.00000000000000E+00   0.00000000000000E+00   1.94029221952561E-14
     -4.66835743267485E-19   1.94024553595128E-14   4.70087838973422E-15   0.00000000000000E+00   0.00000000000000E+00
      0.00000000000000E+00   0.00000000000000E+00  -9.08531600820300E-19  -9.96445996509286E-15  -9.96536849669369E-15
     -2.76803687621643E-15  -2.00000000000000E+00  -2.00000000000000E+00   0.00000000000000E+00   0.00000000000000E+00
     -2.29814713783446E-17  -9.41410539144078E-15  -9.43708686281912E-15  -1.93284151351781E-15
      5.00000000000000E-02
      8.00000000000000E-01   8.00000000000000E-01   0.00000000000000E+00   0.00000000000000E+00   2.01379809835566E-14
     -1.88829790130937E-18   2.01360926856553E-14   4.70374098764040E-15   0.00000000000000E+00   0.00000000000000E+00
      0.00000000000000E+00   0.00000000000000E+00  -9.08530970463610E-19  -9.96723927354219E-15  -9.96814780451265E-15
     -2.76615122357220E-15  -2.50000000000000E+00  -2.50000000000000E+00   0.00000000000000E+00   0.00000000000000E+00
     -2.29816313915309E-17  -1.01449632497512E-14  -1.01679448811427E-14  -1.93758976406819E-15
      6.00000000000000E-02
      8.00000000000000E-01   8.00000000000000E-01   0.00000000000000E+00   0.00000000000000E+00   2.07092321021513E-14
     -1.88178346832491E-18   2.07073503186830E-14   4.70491855820643E-15   0.00000000000000E+00   0.00000000000000E+00
      0.00000000000000E+00   0.00000000000000E+00  -9.08529738834980E-19  -9.97491865154834E-15  -9.97582718128717E-15
     -2.76243163850326E-15  -3.00000000000000E+00  -3.00000000000000E+00   0.00000000000000E+00   0.00000000000000E+00
     -2.29817965864883E-17  -1.07085413408094E-14  -1.07315231373959E-14  -1.94248691970317E-15
      7.00000000000000E-02
      8.00000000000000E-01   8.00000000000000E-01   0.00000000000000E+00   0.00000000000000E+00   2.11916854914201E-14
      1.58845198336115E-18   2.11932739434035E-14   4.70394859525761E-15   0.00000000000000E+00   0.00000000000000E+00
      0.00000000000000E+00   0.00000000000000E+00  -9.08527778248643E-19  -9.98974372616910E-15  -9.99065225394735E-15
     -2.75638273669572E-15  -3.50000000000000E+00  -3.50000000000000E+00   0.00000000000000E+00   0.00000000000000E+00
     -2.29819680849748E-17  -1.11796397213711E-14  -1.12026216894561E-14  -1.94756585856188E-15
      8.00000000000000E-02
      8.00000000000000E-01   8.00000000000000E-01   0.00000000000000E+00   0.00000000000000E+00   2.15701881979819E-14
     -2.34409365218111E-18   2.15678441043297E-14   4.70097892153314E-15   0.00000000000000E+00   0.00000000000000E+00
      0.00000000000000E+00   0.00000000000000E+00  -9.08525184443985E-19  -1.00137676099829E-14  -1.00146761351674E-14
     -2.74812554731859E-15  -4.00000000000000E+00  -4.00000000000000E+00   0.00000000000000E+00   0.00000000000000E+00
     -2.29821468081644E-17  -1.15301858223542E-14  -1.15531679691623E-14  -1.95285337421457E-15
      9.00000000000000E-02
      8.00000000000000E-01   8.00000000000000E-01   0.00000000000000E+00   0.00000000000000E+00   2.18632130005253E-14
     -1.67799564650789E-18   2.18615350048788E-14   4.69653191966572E-15   0.00000000000000E+00   0.00000000000000E+00
      0.00000000000000E+00   0.00000000000000E+00  -9.08522163861871E-19  -1.00458023705186E-14  -1.00467108926825E-14
     -2.73816270310090E-15  -4.50000000000000E+00  -4.50000000000000E+00   0.00000000000000E+00   0.00000000000000E+00
     -2.29823334432402E-17  -1.17918417787531E-14  -1.18148241121964E-14  -1.95836921656482E-15
      1.00000000000000E-01
      8.00000000000000E-01   8.00000000000000E-01   0.00000000000000E+00   0.00000000000000E+00   2.20830125732945E-14
      1.28912236259828E-18   2.20843016956571E-14   4.69106498199361E-15   0.00000000000000E+00   0.00000000000000E+00
      0.00000000000000E+00   0.00000000000000E+00  -9.08518875264498E-19  -1.00776200367400E-14  -1.00785285556153E-14
     -2.72694061363799E-15  -5.00000000000000E+00  -5.00000000000000E+00   0.00000000000000E+00   0.00000000000000E+00
     -2.29825283838875E-17  -1.19827906116579E-14  -1.20057731400418E-14  -1.96412436835563E-15
      1.10000000000000E-01
      8.00000000000000E-01   8.00000000000000E-01   0.00000000000000E+00   0.00000000000000E+00   2.22393369938174E-14
      5.71781197706955E-18   2.22450548057945E-14   4.68485752163419E-15   0.00000000000000E+00   0.00000000000000E+00
      0.00000000000000E+00   0.00000000000000E+00  -9.08515406453553E-19  -1.00990267759273E-14  -1.00999352913337E-14
     -2.71473432494787E-15  -5.50000000000000E+00  -5.50000000000000E+00   0.00000000000000E+00   0.00000000000000E+00
     -2.29827318018212E-17  -1.21221367826589E-14  -1.21451195144607E-14  -1.97012319668632E-15
      1.20000000000000E-01
      8.00000000000000E-01   8.00000000000000E-01   0.00000000000000E+00   0.00000000000000E+00   2.23492232756340E-14
      1.16088290831998E-18   2.23503841585423E-14   4.67806757624679E-15   0.00000000000000E+00   0.00000000000000E+00
      0.00000000000000E+00   0.00000000000000E+00  -9.08511804874615E-19  -1.01090584218748E-14  -1.01099669336796E-14
     -2.70170113236318E-15  -6.00000000000000E+00  -6.00000000000000E+00   0.00000000000000E+00   0.00000000000000E+00
     -2.29829437472052E-17  -1.22174342811155E-14  -1.22404172248627E-14  -1.97636644388361E-15
      1.30000000000000E-01
      8.00000000000000E-01   8.00000000000000E-01   0.00000000000000E+00   0.00000000000000E+00   2.24305813665559E-14
      4.68845551598714E-18   2.24352698220718E-14   4.67078760971220E-15   0.00000000000000E+00   0.00000000000000E+00
      0.00000000000000E+00   0.00000000000000E+00  -9.08508094721117E-19  -1.01117722068343E-14  -1.01126807149291E-14
     -2.68793453642742E-15  -6.50000000000000E+00  -6.50000000000000E+00   0.00000000000000E+00   0.00000000000000E+00
     -2.29831642107445E-17  -1.22996059429320E-14  -1.23225891071428E-14  -1.98285307328478E-15
      1.40000000000000E-01
      8.00000000000000E-01   8.00000000000000E-01   0.00000000000000E+00   0.00000000000000E+00   2.24947181374132E-14
     -2.10493537465530E-17   2.24736687836667E-14   4.66307488564096E-15   0.00000000000000E+00   0.00000000000000E+00
      0.00000000000000E+00   0.00000000000000E+00  -9.08504291954749E-19  -1.01103432553552E-14  -1.01112517596471E-14
     -2.67349369941183E-15  -7.00000000000000E+00  -7.00000000000000E+00   0.00000000000000E+00   0.00000000000000E+00
     -2.29833931545488E-17  -1.23394336308651E-14  -1.23624170240196E-14  -1.98958118622913E-15
      1.50000000000000E-01
      8.00000000000000E-01   8.00000000000000E-01   0.00000000000000E+00   0.00000000000000E+00   2.25475007763382E-14
      8.05235110314368E-18   2.25555531274414E-14   4.65496638305827E-15   0.00000000000000E+00   0.00000000000000E+00
      0.00000000000000E+00   0.00000000000000E+00  -9.08500407346283E-19  -1.01064234729946E-14  -1.01073319734019E-14
     -2.65841791745654E-15  -7.50000000000000E+00  -7.50000000000000E+00   0.00000000000000E+00   0.00000000000000E+00
     -2.29836305270646E-17  -1.24252375235124E-14  -1.24482211540394E-14  -1.99654846560173E-15
      1.60000000000000E-01
      8.00000000000000E-01   8.00000000000000E-01   0.00000000000000E+00   0.00000000000000E+00   2.25919609914420E-14
      9.64325660851209E-18   2.26016042480505E-14   4.64648623061486E-15   0.00000000000000E+00   0.00000000000000E+00
      0.00000000000000E+00   0.00000000000000E+00  -9.08496447921558E-19  -1.01007860959926E-14  -1.01016945924405E-14
     -2.64273383186559E-15  -8.00000000000000E+00  -8.00000000000000E+00   0.00000000000000E+00   0.00000000000000E+00
     -2.29838762705740E-17  -1.24769257793394E-14  -1.24999096556100E-14  -2.00375239874927E-15
      1.70000000000000E-01
      8.00000000000000E-01   8.00000000000000E-01   0.00000000000000E+00   0.00000000000000E+00   2.26299084466735E-14
     -5.65949039513283E-18   2.26242489562783E-14   4.63764951754543E-15   0.00000000000000E+00   0.00000000000000E+00
      0.00000000000000E+00   0.00000000000000E+00  -9.08492420114792E-19  -1.00937610354840E-14  -1.00946695279041E-14
     -2.62645912448760E-15  -8.50000000000000E+00  -8.50000000000000E+00   0.00000000000000E+00   0.00000000000000E+00
     -2.29841303250766E-17  -1.25065952980491E-14  -1.25295794283742E-14  -2.01119039305786E-15
      1.80000000000000E-01
      8.00000000000000E-01   8.00000000000000E-01   0.00000000000000E+00   0.00000000000000E+00   2.26625772619424E-14
      6.83194769886643E-19   2.26632604567123E-14   4.62846414724501E-15   0.00000000000000E+00   0.00000000000000E+00
      0.00000000000000E+00   0.00000000000000E+00  -9.08488327935931E-19  -1.00855736715323E-14  -1.00864821598602E-14
     -2.60960431585809E-15  -9.00000000000000E+00  -9.00000000000000E+00   0.00000000000000E+00   0.00000000000000E+00
     -2.29843926301463E-17  -1.25537939042219E-14  -1.25767782968521E-14  -2.01885983138692E-15
      1.90000000000000E-01
      8.00000000000000E-01   8.00000000000000E-01   0.00000000000000E+00   0.00000000000000E+00   2.26909216642927E-14
      1.23567329395461E-17   2.27032783972322E-14   4.61893143801860E-15   0.00000000000000E+00   0.00000000000000E+00
      0.00000000000000E+00   0.00000000000000E+00  -9.08484174167600E-19  -1.00762704503972E-14  -1.00771789345714E-14
     -2.59217335069810E-15  -9.50000000000000E+00  -9.50000000000000E+00   0.00000000000000E+00   0.00000000000000E+00
     -2.29846631254230E-17  -1.26031147995355E-14  -1.26260994626609E-14  -2.02675808732050E-15
      2.00000000000000E-01
      8.00000000000000E-01   8.00000000000000E-01   0.00000000000000E+00   0.00000000000000E+00   2.27158417182085E-14
     -8.72872304670805E-18   2.27071129951618E-14   4.60904580469295E-15   0.00000000000000E+00   0.00000000000000E+00
      0.00000000000000E+00   0.00000000000000E+00  -9.08479963205850E-19  -1.00658330807076E-14  -1.00667415606708E-14
     -2.57416329339356E-15  -1.00000000000000E+01  -1.00000000000000E+01   0.00000000000000E+00   0.00000000000000E+00
     -2.29849417501088E-17  -1.26173864927409E-14  -1.26403714344910E-14  -2.03488251129941E-15
      2.10000000000000E-01
      8.00000000000000E-01   8.00000000000000E-01   0.00000000000000E+00   0.00000000000000E+00   2.27382571841996E-14
      1.59436288935293E-18   2.27398515470889E-14   4.59879379464015E-15   0.00000000000000E+00   0.00000000000000E+00
      0.00000000000000E+00   0.00000000000000E+00  -9.08475695616942E-19  -1.00537618435579E-14  -1.00546703192535E-14
     -2.55556339578493E-15  -1.05000000000000E+01  -1.05000000000000E+01   0.00000000000000E+00   0.00000000000000E+00
     -2.29852284418471E-17  -1.26621959993935E-14  -1.26851812278354E-14  -2.04323039885523E-15
      2.20000000000000E-01
      8.00000000000000E-01   8.00000000000000E-01   0.00000000000000E+00   0.00000000000000E+00   2.27588816192589E-14
     -6.69927731916097E-18   2.27521823419397E-14   4.58815301277078E-15   0.00000000000000E+00   0.00000000000000E+00
      0.00000000000000E+00   0.00000000000000E+00  -9.08471372930463E-19  -1.00383516086632E-14  -1.00392600800362E-14
     -2.53635405181219E-15  -1.10000000000000E+01  -1.10000000000000E+01   0.00000000000000E+00   0.00000000000000E+00
     -2.29855231356637E-17  -1.26899367387678E-14  -1.27129222619035E-14  -2.05179896095855E-15
      2.30000000000000E-01
      8.00000000000000E-01   8.00000000000000E-01   0.00000000000000E+00   0.00000000000000E+00   2.27781745217655E-14
      1.96265807092947E-17   2.27978011024748E-14   4.57709236616565E-15   0.00000000000000E+00   0.00000000000000E+00
      0.00000000000000E+00   0.00000000000000E+00  -9.08466995954997E-19  -1.00134452231977E-14  -1.00143536901936E-14
     -2.51650702386641E-15  -1.15000000000000E+01  -1.15000000000000E+01   0.00000000000000E+00   0.00000000000000E+00
     -2.29858257645484E-17  -1.27604615865166E-14  -1.27834474122811E-14  -2.06058534229925E-15
      2.40000000000000E-01
      8.00000000000000E-01   8.00000000000000E-01   0.00000000000000E+00   0.00000000000000E+00   2.27964682223304E-14
      3.02816765907976E-18   2.27994963899895E-14   4.56557709307412E-15   0.00000000000000E+00   0.00000000000000E+00
      0.00000000000000E+00   0.00000000000000E+00  -9.08462565873669E-19  -9.95761213625617E-15  -9.95852059882205E-15
     -2.49599030526497E-15  -1.20000000000000E+01  -1.20000000000000E+01   0.00000000000000E+00   0.00000000000000E+00
     -2.29861362651613E-17  -1.28179896549022E-14  -1.28409757911673E-14  -2.06958678780914E-15
      2.50000000000000E-01
      8.00000000000000E-01   8.00000000000000E-01   0.00000000000000E+00   0.00000000000000E+00   2.28139757269677E-14
      9.21217563110013E-18   2.28231879025988E-14   4.55358453405415E-15   0.00000000000000E+00   0.00000000000000E+00
      0.00000000000000E+00   0.00000000000000E+00  -9.08458083454419E-19  -9.79795184958480E-15  -9.79886030766826E-15
     -2.47478341981545E-15  -1.25000000000000E+01  -1.25000000000000E+01   0.00000000000000E+00   0.00000000000000E+00
     -2.29864545941392E-17  -1.30013411403364E-14  -1.30243275949306E-14  -2.07880111423868E-15
      2.60000000000000E-01
      8.00000000000000E-01   8.00000000000000E-01   0.00000000000000E+00   0.00000000000000E+00   2.28307344341415E-14
      1.02087631718179E-17   2.28409431973133E-14   4.54113334753968E-15   0.00000000000000E+00   0.00000000000000E+00
      0.00000000000000E+00   0.00000000000000E+00  -9.08453555770745E-19  -9.29085150608814E-15  -9.29175995964391E-15
     -2.45290582579058E-15  -1.30000000000000E+01  -1.30000000000000E+01   0.00000000000000E+00   0.00000000000000E+00
     -2.29867807563271E-17  -1.35261964569131E-14  -1.35491832376694E-14  -2.08822752174909E-15
      2.70000000000000E-01
      8.00000000000000E-01   8.00000000000000E-01   0.00000000000000E+00   0.00000000000000E+00   2.28465585711970E-14
      3.78714297432781E-17   2.28844300009403E-14   4.52830957048448E-15   0.00000000000000E+00   0.00000000000000E+00
      0.00000000000000E+00   0.00000000000000E+00  -9.08448990537489E-19  -7.64417203553278E-15  -7.64508048452332E-15
     -2.43044234399552E-15  -1.35000000000000E+01  -1.35000000000000E+01   0.00000000000000E+00   0.00000000000000E+00
     -2.29871148270840E-17  -1.52163624015899E-14  -1.52393495164170E-14  -2.09786722648898E-15
      2.80000000000000E-01
      8.00000000000000E-01   8.00000000000000E-01   0.00000000000000E+00   0.00000000000000E+00   2.28610629142926E-14
     -3.13818637289225E-18   2.28579247279198E-14   4.51525564066525E-15   0.00000000000000E+00   0.00000000000000E+00
      0.00000000000000E+00   0.00000000000000E+00  -9.08444399514625E-19  -2.36570096401776E-15  -2.36660940841728E-15
     -2.40753264761385E-15  -1.40000000000000E+01  -1.40000000000000E+01   0.00000000000000E+00   0.00000000000000E+00
     -2.29874569365993E-17  -2.04683278625659E-14  -2.04913153195025E-14  -2.10772299305138E-15
      2.90000000000000E-01
      8.00000000000000E-01   8.00000000000000E-01   0.00000000000000E+00   0.00000000000000E+00   2.28737344121450E-14
      3.46951458221787E-17   2.29084295579672E-14   4.50212199861748E-15   0.00000000000000E+00   0.00000000000000E+00
      0.00000000000000E+00   0.00000000000000E+00  -9.08439781343298E-19   1.41065607557181E-14   1.41056523159368E-14
     -2.38432431364285E-15  -1.45000000000000E+01  -1.45000000000000E+01   0.00000000000000E+00   0.00000000000000E+00
     -2.29878072199270E-17  -3.69910940666840E-14  -3.70140818739040E-14  -2.11779768497462E-15
      3.00000000000000E-01
      8.00000000000000E-01   8.00000000000000E-01   0.00000000000000E+00   0.00000000000000E+00   2.28839284639509E-14
     -2.07352306485889E-17   2.28631932333023E-14   4.48902678296454E-15   0.00000000000000E+00   0.00000000000000E+00
      0.00000000000000E+00   0.00000000000000E+00  -9.08435091982948E-19   6.38654444034524E-14   6.38645359683604E-14
     -2.36093362461518E-15  -1.50000000000000E+01  -1.50000000000000E+01   0.00000000000000E+00   0.00000000000000E+00
     -2.29881657784804E-17  -8.67047410358839E-14  -8.67277292016624E-14  -2.12809315834938E-15
      3.10000000000000E-01
      8.00000000000000E-01   8.00000000000000E-01   0.00000000000000E+00   0.00000000000000E+00   2.28906882548757E-14
      1.53764361260645E-17   2.29060646910018E-14   4.47604812943226E-15   0.00000000000000E+00   0.00000000000000E+00
      0.00000000000000E+00   0.00000000000000E+00  -9.08430115555830E-19   2.08979142078327E-13   2.08978233648211E-13
     -2.33743801852144E-15  -1.55000000000000E+01  -1.55000000000000E+01   0.00000000000000E+00   0.00000000000000E+00
     -2.29885326745114E-17  -2.31861309806539E-13  -2.31884298339213E-13  -2.13861011091081E-15
      3.20000000000000E-01
      8.00000000000000E-01   8.00000000000000E-01   0.00000000000000E+00   0.00000000000000E+00   2.28922833021960E-14
      1.79157931532547E-17   2.29101990953492E-14   4.46323516038734E-15   0.00000000000000E+00   0.00000000000000E+00
      0.00000000000000E+00   0.00000000000000E+00  -9.08424040950642E-19   6.16923388739640E-13   6.16922480315599E-13
     -2.31388671293422E-15  -1.60000000000000E+01  -1.60000000000000E+01   0.00000000000000E+00   0.00000000000000E+00
     -2.29889079435632E-17  -6.39809690503006E-13  -6.39832679410949E-13  -2.14934844745312E-15
      3.30000000000000E-01
      8.00000000000000E-01   8.00000000000000E-01   0.00000000000000E+00   0.00000000000000E+00   2.28851679785415E-14
      9.21698277794711E-18   2.28943849613195E-14   4.45062111203747E-15   0.00000000000000E+00   0.00000000000000E+00
      0.00000000000000E+00   0.00000000000000E+00  -9.08414356399658E-19   1.72107913832450E-12   1.72107822991014E-12
     -2.29031338796572E-15  -1.65000000000000E+01  -1.65000000000000E+01   0.00000000000000E+00   0.00000000000000E+00
     -2.29892916098351E-17  -1.74394962557986E-12  -1.74397261487147E-12  -2.16030772407175E-15
      3.40000000000000E-01
      8.00000000000000E-01   8.00000000000000E-01   0.00000000000000E+00   0.00000000000000E+00   2.28617054584615E-14
     -9.90604523159416E-18   2.28517994132299E-14   4.43823329528269E-15   0.00000000000000E+00   0.00000000000000E+00
      0.00000000000000E+00   0.00000000000000E+00  -9.08393577096162E-19   4.59503994867694E-12   4.59503904028337E-12
     -2.26674569825281E-15  -1.70000000000000E+01  -1.70000000000000E+01   0.00000000000000E+00   0.00000000000000E+00
     -2.29896837018952E-17  -4.61786785001290E-12  -4.61789083969660E-12  -2.17148759702987E-15
      3.50000000000000E-01
      8.00000000000000E-01   8.00000000000000E-01   0.00000000000000E+00   0.00000000000000E+00   2.28056657253177E-14
      9.32765288677656E-18   2.28149933782044E-14   4.42610058029385E-15   0.00000000000000E+00   0.00000000000000E+00
      0.00000000000000E+00   0.00000000000000E+00  -9.08341978526581E-19   1.17787499985704E-11   1.17787490902284E-11
     -2.24321215604187E-15  -1.75000000000000E+01  -1.75000000000000E+01   0.00000000000000E+00   0.00000000000000E+00
     -2.29900842739867E-17  -1.18015410935223E-11  -1.18015640836065E-11  -2.18288842425198E-15
      3.60000000000000E-01
      8.00000000000000E-01   8.00000000000000E-01   0.00000000000000E+00   0.00000000000000E+00   2.26847809062285E-14
     -2.97595674070205E-18   2.26818049494878E-14   4.41426040808309E-15   0.00000000000000E+00   0.00000000000000E+00