DF-ISE text

Info {
  version   = 1.0
  type      = xyplot
  datasets  = [
    "time"
    "Ntop OuterVoltage" "Ntop InnerVoltage" "Ntop QuasiFermiPotential" "Ntop DisplacementCurrent" "Ntop eCurrent"
    "Ntop hCurrent" "Ntop TotalCurrent" "Ntop Charge" "Ptop OuterVoltage" "Ptop InnerVoltage"
    "Ptop QuasiFermiPotential" "Ptop DisplacementCurrent" "Ptop eCurrent" "Ptop hCurrent" "Ptop TotalCurrent"
    "Ptop Charge" "Pbot OuterVoltage" "Pbot InnerVoltage" "Pbot QuasiFermiPotential" "Pbot DisplacementCurrent"
    "Pbot eCurrent" "Pbot hCurrent" "Pbot TotalCurrent" "Pbot Charge" ]
  functions = [
    Time
    OuterVoltage InnerVoltage QuasiFermiPotential DisplacementCurrent eCurrent
    hCurrent TotalCurrent Charge OuterVoltage InnerVoltage
    QuasiFermiPotential DisplacementCurrent eCurrent hCurrent TotalCurrent
    Charge OuterVoltage InnerVoltage QuasiFermiPotential DisplacementCurrent
    eCurrent hCurrent TotalCurrent Charge ]
}

Data {
      0.00000000000000E+00
      0.00000000000000E+00   0.00000000000000E+00   0.00000000000000E+00   0.00000000000000E+00  -6.78526964739129E-23
     -2.60151337948690E-17  -2.60152016475655E-17   6.32724820948915E-15   0.00000000000000E+00   0.00000000000000E+00
      0.00000000000000E+00   0.00000000000000E+00   6.78526708422842E-23   2.35277023806263E-19   2.35344876477105E-19
     -4.42040691434333E-15   0.00000000000000E+00   0.00000000000000E+00   0.00000000000000E+00   0.00000000000000E+00
      2.58098377815814E-29   2.57798567710626E-17   2.57798567710884E-17  -1.90684129514576E-15
      0.00000000000000E+00
      0.00000000000000E+00   0.00000000000000E+00   0.00000000000000E+00   0.00000000000000E+00   9.41926157323180E-23
     -2.30754701676577E-18  -2.30745282415003E-18   6.32724820959573E-15   0.00000000000000E+00   0.00000000000000E+00
      0.00000000000000E+00   0.00000000000000E+00  -9.41926087070762E-23  -6.86704763919410E-21  -6.96124024790117E-21
     -4.42040691434337E-15   0.00000000000000E+00   0.00000000000000E+00   0.00000000000000E+00   0.00000000000000E+00
     -2.58050237528708E-30   2.31441406440052E-18   2.31441406439794E-18  -1.90684129525234E-15
      1.00000000000000E-01
      8.00000000000000E-02   8.00000000000000E-02   0.00000000000000E+00   0.00000000000000E+00   1.31534691401397E-15
      5.28754396169629E-19   1.31587566841014E-15   6.70565133006865E-15   0.00000000000000E+00   0.00000000000000E+00
      0.00000000000000E+00   0.00000000000000E+00  -1.79517036355219E-18  -1.66743689667060E-16  -1.68538860030612E-16
     -4.79806300976927E-15   0.00000000000000E+00   0.00000000000000E+00   0.00000000000000E+00   0.00000000000000E+00
     -2.28697587532755E-17  -1.12446704962626E-15  -1.14733680837953E-15  -1.90758832029937E-15
      2.00000000000000E-01
      1.60000000000000E-01   1.60000000000000E-01   0.00000000000000E+00   0.00000000000000E+00   1.97878155116612E-15
      2.75028829200789E-19   1.97905657999532E-15   7.07623565792013E-15   0.00000000000000E+00   0.00000000000000E+00
      0.00000000000000E+00   0.00000000000000E+00  -1.87204929827175E-18  -2.54286755954172E-16  -2.56158805252443E-16
     -5.16790061587004E-15   0.00000000000000E+00   0.00000000000000E+00   0.00000000000000E+00   0.00000000000000E+00
     -2.29805923662901E-17  -1.69991718237659E-15  -1.72289777474288E-15  -1.90833504205010E-15
      3.00000000000000E-01
      2.40000000000000E-01   2.40000000000000E-01   0.00000000000000E+00   0.00000000000000E+00   2.52365975892832E-15
     -7.87004583052448E-19   2.52287275434526E-15   7.44019987256767E-15   0.00000000000000E+00   0.00000000000000E+00
      0.00000000000000E+00   0.00000000000000E+00  -1.87538660917910E-18  -3.34951431749059E-16  -3.36826818358238E-16
     -5.53111818961062E-15   0.00000000000000E+00   0.00000000000000E+00   0.00000000000000E+00   0.00000000000000E+00
     -2.29806739050941E-17  -2.16306526208193E-15  -2.18604593598703E-15  -1.90908168295704E-15
      4.00000000000000E-01
      3.20000000000000E-01   3.20000000000000E-01   0.00000000000000E+00   0.00000000000000E+00   3.01514010884492E-15
     -1.14635613389215E-19   3.01502547323153E-15   7.79839077773299E-15   0.00000000000000E+00   0.00000000000000E+00
      0.00000000000000E+00   0.00000000000000E+00  -1.87574223421830E-18  -4.17144034395581E-16  -4.19019776629799E-16
     -5.88856252313343E-15   0.00000000000000E+00   0.00000000000000E+00   0.00000000000000E+00   0.00000000000000E+00
     -2.29806983314429E-17  -2.57302499827029E-15  -2.59600569660173E-15  -1.90982825459956E-15
      5.00000000000000E-01
      4.00000000000000E-01   4.00000000000000E-01   0.00000000000000E+00   0.00000000000000E+00   3.46750507156826E-15
     -1.23726520767973E-18   3.46626780636058E-15   8.15098383909981E-15   0.00000000000000E+00   0.00000000000000E+00
      0.00000000000000E+00   0.00000000000000E+00  -1.87598980827497E-18  -4.95349634767625E-16  -4.97225624575900E-16
     -6.24040915015127E-15   0.00000000000000E+00   0.00000000000000E+00   0.00000000000000E+00   0.00000000000000E+00
     -2.29807233121625E-17  -2.94606145847252E-15  -2.96904218178468E-15  -1.91057468894853E-15
      6.00000000000000E-01
      4.80000000000000E-01   4.80000000000000E-01   0.00000000000000E+00   0.00000000000000E+00   3.88335191918916E-15
      1.59713026988898E-18   3.88494904945905E-15   8.49747911828632E-15   0.00000000000000E+00   0.00000000000000E+00
      0.00000000000000E+00   0.00000000000000E+00  -1.87622363095214E-18  -5.61534488913997E-16  -5.63410712544949E-16
     -6.58615822086430E-15   0.00000000000000E+00   0.00000000000000E+00   0.00000000000000E+00   0.00000000000000E+00
     -2.29807483072472E-17  -3.29855758860686E-15  -3.32153833691410E-15  -1.91132089742206E-15
      7.00000000000000E-01
      5.60000000000000E-01   5.60000000000000E-01   0.00000000000000E+00   0.00000000000000E+00   4.27144755466220E-15
      4.50547554302902E-20   4.27149260941763E-15   8.83675871703502E-15   0.00000000000000E+00   0.00000000000000E+00
      0.00000000000000E+00   0.00000000000000E+00  -1.87644347460969E-18  -6.19004254090048E-16  -6.20880697564658E-16
     -6.92469192196017E-15   0.00000000000000E+00   0.00000000000000E+00   0.00000000000000E+00   0.00000000000000E+00
     -2.29807732992564E-17  -3.62763113855372E-15  -3.65061191185298E-15  -1.91206679507491E-15
      8.00000000000000E-01
      6.40000000000000E-01   6.40000000000000E-01   0.00000000000000E+00   0.00000000000000E+00   4.63895513567604E-15
      3.51093473085451E-19   4.63930622914912E-15   9.16755879101321E-15   0.00000000000000E+00   0.00000000000000E+00
      0.00000000000000E+00   0.00000000000000E+00  -1.87665205605107E-18  -6.72659114802458E-16  -6.74535766858509E-16
     -7.25474648302610E-15   0.00000000000000E+00   0.00000000000000E+00   0.00000000000000E+00   0.00000000000000E+00
     -2.29807982847001E-17  -3.94178966400591E-15  -3.96477046229061E-15  -1.91281230798716E-15
      9.00000000000000E-01
      7.20000000000000E-01   7.20000000000000E-01   0.00000000000000E+00   0.00000000000000E+00   4.99042667894615E-15
      1.14827218001715E-18   4.99157495112617E-15   9.48943451371752E-15   0.00000000000000E+00   0.00000000000000E+00
      0.00000000000000E+00   0.00000000000000E+00  -1.87685000042410E-18  -7.25480533752015E-16  -7.27357383752440E-16
     -7.57587714230025E-15   0.00000000000000E+00   0.00000000000000E+00   0.00000000000000E+00   0.00000000000000E+00
     -2.29808232610582E-17  -4.24123674411267E-15  -4.26421756737373E-15  -1.91355737141729E-15
      1.00000000000000E+00
      8.00000000000000E-01   8.00000000000000E-01   0.00000000000000E+00   0.00000000000000E+00   5.32970549512719E-15
      1.28180854827520E-18   5.33098730367547E-15   9.80244986633659E-15   0.00000000000000E+00   0.00000000000000E+00
      0.00000000000000E+00   0.00000000000000E+00  -1.87703991633726E-18  -7.80199931572893E-16  -7.82076971489230E-16
     -7.88814794631297E-15   0.00000000000000E+00   0.00000000000000E+00   0.00000000000000E+00   0.00000000000000E+00
     -2.29808482258711E-17  -4.52592948396036E-15  -4.54891033218623E-15  -1.91430192002361E-15
      0.00000000000000E+00
      8.00000000000000E-01   8.00000000000000E-01   0.00000000000000E+00   0.00000000000000E+00   5.32970549564621E-15
      3.83792044211326E-19   5.33008928769042E-15   9.80244986633664E-15   0.00000000000000E+00   0.00000000000000E+00
      0.00000000000000E+00   0.00000000000000E+00  -1.87704043543874E-18  -7.80201938887168E-16  -7.82078979322607E-16
     -7.88814794631302E-15   0.00000000000000E+00   0.00000000000000E+00   0.00000000000000E+00   0.00000000000000E+00
     -2.29808482258710E-17  -4.52502946014194E-15  -4.54801030836781E-15  -1.91430192002361E-15
      1.00000000000000E-02
      8.00000000000000E-01   8.00000000000000E-01   0.00000000000000E+00   0.00000000000000E+00   6.87572527222478E-15
     -4.00686390011002E-19   6.87532458583477E-15   9.80707621610498E-15   0.00000000000000E+00   0.00000000000000E+00
      0.00000000000000E+00   0.00000000000000E+00  -1.87704043120381E-18  -7.74251571855316E-16  -7.76128612286520E-16
     -7.88813199059071E-15  -5.00000000000000E-01  -5.00000000000000E-01   0.00000000000000E+00   0.00000000000000E+00
     -2.29810088738856E-17  -6.07621496467437E-15  -6.09919597354825E-15  -1.91894422551425E-15
      2.00000000000000E-02
      8.00000000000000E-01   8.00000000000000E-01   0.00000000000000E+00   0.00000000000000E+00   8.15868719568176E-15
     -1.20601057256933E-18   8.15748118510919E-15   9.81163003029374E-15   0.00000000000000E+00   0.00000000000000E+00
      0.00000000000000E+00   0.00000000000000E+00  -1.87704041089206E-18  -7.70073482645551E-16  -7.71950523056443E-16
     -7.88806004026543E-15  -1.00000000000000E+00  -1.00000000000000E+00   0.00000000000000E+00   0.00000000000000E+00
     -2.29811594039730E-17  -7.36254950264876E-15  -7.38553066205274E-15  -1.92356999002827E-15
      3.00000000000000E-02
      8.00000000000000E-01   8.00000000000000E-01   0.00000000000000E+00   0.00000000000000E+00   9.26557405169418E-15
     -4.11043164455365E-19   9.26516300852972E-15   9.81598554984547E-15   0.00000000000000E+00   0.00000000000000E+00
      0.00000000000000E+00   0.00000000000000E+00  -1.87704033786217E-18  -7.67581970422563E-16  -7.69459010760426E-16
     -7.88779470237326E-15  -1.50000000000000E+00  -1.50000000000000E+00   0.00000000000000E+00   0.00000000000000E+00
     -2.29813148098394E-17  -8.47272268295946E-15  -8.49570399776930E-15  -1.92819084747219E-15
      4.00000000000000E-02
      8.00000000000000E-01   8.00000000000000E-01   0.00000000000000E+00   0.00000000000000E+00   1.02072304402611E-14
     -3.37954978473449E-19   1.02068924852826E-14   9.81983997401004E-15   0.00000000000000E+00   0.00000000000000E+00
      0.00000000000000E+00   0.00000000000000E+00  -1.87704011857321E-18  -7.67210701576875E-16  -7.69087741695448E-16
     -7.88699905121110E-15  -2.00000000000000E+00  -2.00000000000000E+00   0.00000000000000E+00   0.00000000000000E+00
     -2.29814713584476E-17  -9.41482327222871E-15  -9.43780474358716E-15  -1.93284092279892E-15
      5.00000000000000E-02
      8.00000000000000E-01   8.00000000000000E-01   0.00000000000000E+00   0.00000000000000E+00   1.09429661992043E-14
      3.31598496131988E-18   1.09462821841656E-14   9.82267436567411E-15   0.00000000000000E+00   0.00000000000000E+00
      0.00000000000000E+00   0.00000000000000E+00  -1.87703959184911E-18  -7.70052778479901E-16  -7.71929818071750E-16
     -7.88508602210086E-15  -2.50000000000000E+00  -2.50000000000000E+00   0.00000000000000E+00   0.00000000000000E+00
     -2.29816313436375E-17  -1.01513707347502E-14  -1.01743523660939E-14  -1.93758834357326E-15
      6.00000000000000E-02
      8.00000000000000E-01   8.00000000000000E-01   0.00000000000000E+00   0.00000000000000E+00   1.15154426556890E-14
      6.49148815386239E-18   1.15219341438428E-14   9.82379348399584E-15   0.00000000000000E+00   0.00000000000000E+00
      0.00000000000000E+00   0.00000000000000E+00  -1.87703856387931E-18  -7.77851298171282E-16  -7.79728336735161E-16
     -7.88130945196484E-15  -3.00000000000000E+00  -3.00000000000000E+00   0.00000000000000E+00   0.00000000000000E+00
     -2.29817964890308E-17  -1.07192240106186E-14  -1.07422058071077E-14  -1.94248403203102E-15
      7.00000000000000E-02
      8.00000000000000E-01   8.00000000000000E-01   0.00000000000000E+00   0.00000000000000E+00   1.19991914259462E-14
      4.78419889758659E-18   1.20039756248438E-14   9.82272692215477E-15   0.00000000000000E+00   0.00000000000000E+00
      0.00000000000000E+00   0.00000000000000E+00  -1.87703693189764E-18  -7.92962331836610E-16  -7.94839368768507E-16
     -7.87516611519653E-15  -3.50000000000000E+00  -3.50000000000000E+00   0.00000000000000E+00   0.00000000000000E+00
     -2.29819679143136E-17  -1.11861542881609E-14  -1.12091362560752E-14  -1.94756080695828E-15
      8.00000000000000E-02
      8.00000000000000E-01   8.00000000000000E-01   0.00000000000000E+00   0.00000000000000E+00   1.23788749498849E-14
     -3.27620242084968E-18   1.23755987474640E-14   9.81962669547109E-15   0.00000000000000E+00   0.00000000000000E+00
      0.00000000000000E+00   0.00000000000000E+00  -1.87703478014319E-18  -8.17414271578821E-16  -8.19291306358964E-16
     -7.86678112481629E-15  -4.00000000000000E+00  -4.00000000000000E+00   0.00000000000000E+00   0.00000000000000E+00
     -2.29821465442612E-17  -1.15333252945608E-14  -1.15563074411051E-14  -1.95284557065484E-15
      9.00000000000000E-02
      8.00000000000000E-01   8.00000000000000E-01   0.00000000000000E+00   0.00000000000000E+00   1.26726568135874E-14
     -5.70620681321300E-18   1.26669506067742E-14   9.81502173791528E-15   0.00000000000000E+00   0.00000000000000E+00
      0.00000000000000E+00   0.00000000000000E+00  -1.87703228435017E-18  -8.49949640456494E-16  -8.51826672740844E-16
     -7.85666357855889E-15  -4.50000000000000E+00  -4.50000000000000E+00   0.00000000000000E+00   0.00000000000000E+00
     -2.29823330689099E-17  -1.17921416009644E-14  -1.18151239340333E-14  -1.95835815935644E-15
      1.00000000000000E-01
      8.00000000000000E-01   8.00000000000000E-01   0.00000000000000E+00   0.00000000000000E+00   1.28926138631963E-14
      6.14913957244880E-19   1.28932287771535E-14   9.80937091066399E-15   0.00000000000000E+00   0.00000000000000E+00
      0.00000000000000E+00   0.00000000000000E+00  -1.87702957535052E-18  -8.82010510640931E-16  -8.83887540216282E-16
     -7.84526138522408E-15  -5.00000000000000E+00  -5.00000000000000E+00   0.00000000000000E+00   0.00000000000000E+00
     -2.29825278808516E-17  -1.19863587090564E-14  -1.20093412369372E-14  -1.96410952543992E-15
      1.10000000000000E-01
      8.00000000000000E-01   8.00000000000000E-01   0.00000000000000E+00   0.00000000000000E+00   1.30486425252548E-14
     -8.11992716862569E-19   1.30478305325379E-14   9.80295178097025E-15   0.00000000000000E+00   0.00000000000000E+00
      0.00000000000000E+00   0.00000000000000E+00  -1.87702672461019E-18  -9.03373168661809E-16  -9.05250195386419E-16
     -7.83284783577370E-15  -5.50000000000000E+00  -5.50000000000000E+00   0.00000000000000E+00   0.00000000000000E+00
     -2.29827311486486E-17  -1.21195976060028E-14  -1.21425803371515E-14  -1.97010394519653E-15
      1.20000000000000E-01
      8.00000000000000E-01   8.00000000000000E-01   0.00000000000000E+00   0.00000000000000E+00   1.31582358975081E-14
      5.00725436620896E-19   1.31587366229448E-14   9.79591922220885E-15   0.00000000000000E+00   0.00000000000000E+00
      0.00000000000000E+00   0.00000000000000E+00  -1.87702376827120E-18  -9.13335074121241E-16  -9.15212097889512E-16
     -7.81957717343703E-15  -6.00000000000000E+00  -6.00000000000000E+00   0.00000000000000E+00   0.00000000000000E+00
     -2.29829429185701E-17  -1.22205415821367E-14  -1.22435245250553E-14  -1.97634204877182E-15
      1.30000000000000E-01
      8.00000000000000E-01   8.00000000000000E-01   0.00000000000000E+00   0.00000000000000E+00   1.32394714762681E-14
     -8.58172439889559E-18   1.32308897518692E-14   9.78836172411582E-15   0.00000000000000E+00   0.00000000000000E+00
      0.00000000000000E+00   0.00000000000000E+00  -1.87702072771028E-18  -9.16056266784080E-16  -9.17933287511790E-16
     -7.80553905217110E-15  -6.50000000000000E+00  -6.50000000000000E+00   0.00000000000000E+00   0.00000000000000E+00
     -2.29831631768781E-17  -1.22899733011806E-14  -1.23129564643574E-14  -1.98282267194476E-15
      1.40000000000000E-01
      8.00000000000000E-01   8.00000000000000E-01   0.00000000000000E+00   0.00000000000000E+00   1.33036467448264E-14
     -7.18325796342858E-18   1.32964634868630E-14   9.78033164059214E-15   0.00000000000000E+00   0.00000000000000E+00
      0.00000000000000E+00   0.00000000000000E+00  -1.87701761354526E-18  -9.14661722275346E-16  -9.16538739888891E-16
     -7.79078787353816E-15  -7.00000000000000E+00  -7.00000000000000E+00   0.00000000000000E+00   0.00000000000000E+00
     -2.29833918804876E-17  -1.23569413550936E-14  -1.23799247469741E-14  -1.98954376705405E-15
      1.50000000000000E-01
      8.00000000000000E-01   8.00000000000000E-01   0.00000000000000E+00   0.00000000000000E+00   1.33566048711176E-14
     -1.49248649816964E-18   1.33551123846194E-14   9.77185969009894E-15   0.00000000000000E+00   0.00000000000000E+00
      0.00000000000000E+00   0.00000000000000E+00  -1.87701443523243E-18  -9.10799953213340E-16  -9.12676967648572E-16
     -7.77535685501486E-15  -7.50000000000000E+00  -7.50000000000000E+00   0.00000000000000E+00   0.00000000000000E+00
     -2.29836289714946E-17  -1.24194517879993E-14  -1.24424354169708E-14  -1.99650283508408E-15
      1.60000000000000E-01
      8.00000000000000E-01   8.00000000000000E-01   0.00000000000000E+00   0.00000000000000E+00   1.34013723545469E-14
     -7.06387404721923E-19   1.34006659671422E-14   9.76296168214048E-15   0.00000000000000E+00   0.00000000000000E+00
      0.00000000000000E+00   0.00000000000000E+00  -1.87701119773881E-18  -9.05243576461358E-16  -9.07120587659097E-16
     -7.75926455136552E-15  -8.00000000000000E+00  -8.00000000000000E+00   0.00000000000000E+00   0.00000000000000E+00
     -2.29838743840642E-17  -1.24705615050990E-14  -1.24935453794831E-14  -2.00369713077499E-15
      1.70000000000000E-01
      8.00000000000000E-01   8.00000000000000E-01   0.00000000000000E+00   0.00000000000000E+00   1.34397602184141E-14
     -3.09584545078416E-19   1.34394506338690E-14   9.75364117060699E-15   0.00000000000000E+00   0.00000000000000E+00
      0.00000000000000E+00   0.00000000000000E+00  -1.87700790457508E-18  -8.98361230933822E-16  -9.00238238838397E-16
     -7.74251742102759E-15  -8.50000000000000E+00  -8.50000000000000E+00   0.00000000000000E+00   0.00000000000000E+00
     -2.29841280473149E-17  -1.25162282669832E-14  -1.25392123950306E-14  -2.01112374957943E-15
      1.80000000000000E-01
      8.00000000000000E-01   8.00000000000000E-01   0.00000000000000E+00   0.00000000000000E+00   1.34729984825788E-14
      2.13288730023343E-18   1.34751313698790E-14   9.74388941381245E-15   0.00000000000000E+00   0.00000000000000E+00
      0.00000000000000E+00   0.00000000000000E+00  -1.87700455922425E-18  -8.90336146535939E-16  -8.92213151095163E-16
     -7.72510977759977E-15  -9.00000000000000E+00  -9.00000000000000E+00   0.00000000000000E+00   0.00000000000000E+00
     -2.29843898855592E-17  -1.25599338288983E-14  -1.25829182187839E-14  -2.01877963621274E-15
      1.90000000000000E-01
      8.00000000000000E-01   8.00000000000000E-01   0.00000000000000E+00   0.00000000000000E+00   1.35020712702569E-14
     -6.77396378439006E-18   1.34952973064725E-14   9.73368293238770E-15   0.00000000000000E+00   0.00000000000000E+00
      0.00000000000000E+00   0.00000000000000E+00  -1.87700116375557E-18  -8.81239827093794E-16  -8.83116828257550E-16
     -7.70702140770017E-15  -9.50000000000000E+00  -9.50000000000000E+00   0.00000000000000E+00   0.00000000000000E+00
     -2.29846598161752E-17  -1.25891958183988E-14  -1.26121804782150E-14  -2.02666152468753E-15
      2.00000000000000E-01
      8.00000000000000E-01   8.00000000000000E-01   0.00000000000000E+00   0.00000000000000E+00   1.35279703338555E-14
     -4.66175765799047E-18   1.35233085761975E-14   9.72297863462668E-15   0.00000000000000E+00   0.00000000000000E+00
      0.00000000000000E+00   0.00000000000000E+00  -1.87699771734326E-18  -8.70988346831251E-16  -8.72865344548594E-16
     -7.68821282115198E-15  -1.00000000000000E+01  -1.00000000000000E+01   0.00000000000000E+00   0.00000000000000E+00
     -2.29849377452500E-17  -1.26274582939037E-14  -1.26504432316489E-14  -2.03476581347470E-15
      2.10000000000000E-01
      8.00000000000000E-01   8.00000000000000E-01   0.00000000000000E+00   0.00000000000000E+00   1.35517318500276E-14
      8.24510036778305E-18   1.35599769503954E-14   9.71170752136926E-15   0.00000000000000E+00   0.00000000000000E+00
      0.00000000000000E+00   0.00000000000000E+00  -1.87699422055251E-18  -8.59118346408623E-16  -8.60995340629176E-16
     -7.66861911060129E-15  -1.05000000000000E+01  -1.05000000000000E+01   0.00000000000000E+00   0.00000000000000E+00
     -2.29852235621435E-17  -1.26759963862040E-14  -1.26989816097662E-14  -2.04308841076801E-15
      2.20000000000000E-01
      8.00000000000000E-01   8.00000000000000E-01   0.00000000000000E+00   0.00000000000000E+00   1.35741548638899E-14
     -4.24936110724839E-18   1.35699055027827E-14   9.69977344466423E-15   0.00000000000000E+00   0.00000000000000E+00
      0.00000000000000E+00   0.00000000000000E+00  -1.87699066980699E-18  -8.43566470451505E-16  -8.45443461121312E-16
     -7.64814871300831E-15  -1.10000000000000E+01  -1.10000000000000E+01   0.00000000000000E+00   0.00000000000000E+00
     -2.29855171392366E-17  -1.27014765245221E-14  -1.27244620416614E-14  -2.05162473165596E-15
      2.30000000000000E-01
      8.00000000000000E-01   8.00000000000000E-01   0.00000000000000E+00   0.00000000000000E+00   1.35957928555149E-14
      5.67363078501931E-18   1.36014664862999E-14   9.68707887996745E-15   0.00000000000000E+00   0.00000000000000E+00
      0.00000000000000E+00   0.00000000000000E+00  -1.87698706366389E-18  -8.16774499551871E-16  -8.18651486615535E-16
     -7.62670845374461E-15  -1.15000000000000E+01  -1.15000000000000E+01   0.00000000000000E+00   0.00000000000000E+00
     -2.29858183568659E-17  -1.27598291813275E-14  -1.27828149996844E-14  -2.06037042622286E-15
      2.40000000000000E-01
      8.00000000000000E-01   8.00000000000000E-01   0.00000000000000E+00   0.00000000000000E+00   1.36169094525366E-14
     -4.40672680012698E-18   1.36125027257364E-14   9.67361010230224E-15   0.00000000000000E+00   0.00000000000000E+00
      0.00000000000000E+00   0.00000000000000E+00  -1.87698340711144E-18  -7.51584922847614E-16  -7.53461906254725E-16
     -7.60428646488482E-15  -1.20000000000000E+01  -1.20000000000000E+01   0.00000000000000E+00   0.00000000000000E+00
     -2.29861271812707E-17  -1.28360546923004E-14  -1.28590408194817E-14  -2.06932363741740E-15
      2.50000000000000E-01
      8.00000000000000E-01   8.00000000000000E-01   0.00000000000000E+00   0.00000000000000E+00   1.36373010499051E-14
      8.97148515040071E-18   1.36462725350555E-14   9.65953466074456E-15   0.00000000000000E+00   0.00000000000000E+00
      0.00000000000000E+00   0.00000000000000E+00  -1.87697971274641E-18  -5.53143058532180E-16  -5.55020038244927E-16
     -7.58104721608689E-15  -1.25000000000000E+01  -1.25000000000000E+01   0.00000000000000E+00   0.00000000000000E+00
     -2.29864437497018E-17  -1.30682660530608E-14  -1.30912524968105E-14  -2.07848744465768E-15
      2.60000000000000E-01
      8.00000000000000E-01   8.00000000000000E-01   0.00000000000000E+00   0.00000000000000E+00   1.36563953470440E-14
     -2.66451772951818E-17   1.36297501697489E-14   9.64514822199329E-15   0.00000000000000E+00   0.00000000000000E+00
      0.00000000000000E+00   0.00000000000000E+00  -1.87697599951460E-18   9.89724568206395E-17   9.70954808211249E-17
     -7.55727994698283E-15  -1.30000000000000E+01  -1.30000000000000E+01   0.00000000000000E+00   0.00000000000000E+00
     -2.29867683167130E-17  -1.37038588822533E-14  -1.37268456505700E-14  -2.08786827501053E-15
      2.70000000000000E-01
      8.00000000000000E-01   8.00000000000000E-01   0.00000000000000E+00   0.00000000000000E+00   1.36735651521238E-14
     -3.20891652932122E-17   1.36414759868306E-14   9.63070794330330E-15   0.00000000000000E+00   0.00000000000000E+00
      0.00000000000000E+00   0.00000000000000E+00  -1.87697228234697E-18   2.24771834224409E-15   2.24584136996174E-15
     -7.53323646310740E-15  -1.35000000000000E+01  -1.35000000000000E+01   0.00000000000000E+00   0.00000000000000E+00
     -2.29871011017386E-17  -1.58643302556906E-14  -1.58873173567923E-14  -2.09747148019590E-15
      2.80000000000000E-01
      8.00000000000000E-01   8.00000000000000E-01   0.00000000000000E+00   0.00000000000000E+00   1.36882337379925E-14
     -2.77075679200742E-17   1.36605261700725E-14   9.61636360907174E-15   0.00000000000000E+00   0.00000000000000E+00
      0.00000000000000E+00   0.00000000000000E+00  -1.87696856336030E-18   9.16321438281611E-15   9.16133741425275E-15
     -7.50906402229988E-15  -1.40000000000000E+01  -1.40000000000000E+01   0.00000000000000E+00   0.00000000000000E+00
     -2.29874422280711E-17  -2.27988761420972E-14  -2.28218635843252E-14  -2.10729958677185E-15
      2.90000000000000E-01
      8.00000000000000E-01   8.00000000000000E-01   0.00000000000000E+00   0.00000000000000E+00   1.36997894561448E-14
     -2.33516176349435E-17   1.36764378385099E-14   9.60218722560225E-15   0.00000000000000E+00   0.00000000000000E+00
      0.00000000000000E+00   0.00000000000000E+00  -1.87696478414574E-18   3.07163749052948E-14   3.07144979405106E-14
     -7.48483412774884E-15  -1.45000000000000E+01  -1.45000000000000E+01   0.00000000000000E+00   0.00000000000000E+00
     -2.29877917500259E-17  -4.43679479872705E-14  -4.43909357790205E-14  -2.11735309785340E-15
      3.00000000000000E-01
      8.00000000000000E-01   8.00000000000000E-01   0.00000000000000E+00   0.00000000000000E+00   1.37074982944458E-14
      2.42722308995767E-17   1.37317705253454E-14   9.58821238889779E-15   0.00000000000000E+00   0.00000000000000E+00
      0.00000000000000E+00   0.00000000000000E+00  -1.87696072814476E-18   9.55649811100023E-14   9.55631041492741E-14
     -7.46058087143760E-15  -1.50000000000000E+01  -1.50000000000000E+01   0.00000000000000E+00   0.00000000000000E+00
     -2.29881496880772E-17  -1.09271886524931E-13  -1.09294874674619E-13  -2.12763151746021E-15
      3.10000000000000E-01
      8.00000000000000E-01   8.00000000000000E-01   0.00000000000000E+00   0.00000000000000E+00   1.37103732854205E-14
     -2.08032963964251E-17   1.36895699890240E-14   9.57445683929758E-15   0.00000000000000E+00   0.00000000000000E+00
      0.00000000000000E+00   0.00000000000000E+00  -1.87695668440133E-18   2.83654211104748E-13   2.83652334148064E-13
     -7.43632290230925E-15  -1.55000000000000E+01  -1.55000000000000E+01   0.00000000000000E+00   0.00000000000000E+00
     -2.29885160490525E-17  -2.97318915621039E-13  -2.97341904137088E-13  -2.13813393698830E-15
      3.20000000000000E-01
      8.00000000000000E-01   8.00000000000000E-01   0.00000000000000E+00   0.00000000000000E+00   1.37066743825543E-14
      1.80805185004347E-17   1.37247549010548E-14   9.56093314785687E-15   0.00000000000000E+00   0.00000000000000E+00
      0.00000000000000E+00   0.00000000000000E+00  -1.87695086446672E-18   8.09025350711112E-13   8.09023473760247E-13
     -7.41207380932030E-15  -1.60000000000000E+01  -1.60000000000000E+01   0.00000000000000E+00   0.00000000000000E+00
     -2.29888908366363E-17  -8.22725239770469E-13  -8.22748228661306E-13  -2.14885933853657E-15
      3.30000000000000E-01
      8.00000000000000E-01   8.00000000000000E-01   0.00000000000000E+00   0.00000000000000E+00   1.36925129744573E-14
     -1.16419096347655E-17   1.36808710648225E-14   9.54765409399628E-15   0.00000000000000E+00   0.00000000000000E+00
      0.00000000000000E+00   0.00000000000000E+00  -1.87693976235918E-18   2.22088271526512E-12   2.22088083832536E-12
     -7.38784727319378E-15  -1.65000000000000E+01  -1.65000000000000E+01   0.00000000000000E+00   0.00000000000000E+00
     -2.29892740592641E-17  -2.23453872011615E-12  -2.23456170939020E-12  -2.15980682080245E-15
      3.40000000000000E-01
      8.00000000000000E-01   8.00000000000000E-01   0.00000000000000E+00   0.00000000000000E+00   1.36588911206154E-14
     -8.96855366003200E-18   1.36499225669554E-14   9.53463634526366E-15   0.00000000000000E+00   0.00000000000000E+00
      0.00000000000000E+00   0.00000000000000E+00  -1.87691315202188E-18   5.86722556513119E-12   5.86722368821803E-12
     -7.36366043219223E-15  -1.70000000000000E+01  -1.70000000000000E+01   0.00000000000000E+00   0.00000000000000E+00
     -2.29896657412560E-17  -5.88085062111923E-12  -5.88087361078497E-12  -2.17097591307145E-15
      3.50000000000000E-01
      8.00000000000000E-01   8.00000000000000E-01   0.00000000000000E+00   0.00000000000000E+00   1.35862802370612E-14
      5.67212203136534E-18   1.35919523590925E-14   9.52190436067091E-15   0.00000000000000E+00   0.00000000000000E+00
      0.00000000000000E+00   0.00000000000000E+00  -1.87684440213251E-18   1.49049283803622E-11   1.49049265035178E-11
     -7.33953719055577E-15  -1.75000000000000E+01  -1.75000000000000E+01   0.00000000000000E+00   0.00000000000000E+00
     -2.29900659440194E-17  -1.49184954658110E-11  -1.49185184558769E-11  -2.18236717011514E-15
      3.60000000000000E-01
      8.00000000000000E-01   8.00000000000000E-01   0.00000000000000E+00   0.00000000000000E+00   1.34363797835827E-14
      2.04689858325996E-17   1.34568487694153E-14   9.50949586303813E-15   0.00000000000000E+00   0.00000000000000E+00