DF-ISE text

Info {
  version   = 1.0
  type      = xyplot
  datasets  = [
    "time"
    "Ntop OuterVoltage" "Ntop InnerVoltage" "Ntop QuasiFermiPotential" "Ntop DisplacementCurrent" "Ntop eCurrent"
    "Ntop hCurrent" "Ntop TotalCurrent" "Ntop Charge" "Ptop OuterVoltage" "Ptop InnerVoltage"
    "Ptop QuasiFermiPotential" "Ptop DisplacementCurrent" "Ptop eCurrent" "Ptop hCurrent" "Ptop TotalCurrent"
    "Ptop Charge" "Pbot OuterVoltage" "Pbot InnerVoltage" "Pbot QuasiFermiPotential" "Pbot DisplacementCurrent"
    "Pbot eCurrent" "Pbot hCurrent" "Pbot TotalCurrent" "Pbot Charge" ]
  functions = [
    Time
    OuterVoltage InnerVoltage QuasiFermiPotential DisplacementCurrent eCurrent
    hCurrent TotalCurrent Charge OuterVoltage InnerVoltage
    QuasiFermiPotential DisplacementCurrent eCurrent hCurrent TotalCurrent
    Charge OuterVoltage InnerVoltage QuasiFermiPotential DisplacementCurrent
    eCurrent hCurrent TotalCurrent Charge ]
}

Data {
      0.00000000000000E+00
      0.00000000000000E+00   0.00000000000000E+00   0.00000000000000E+00   0.00000000000000E+00   1.11249923982077E-22
     -2.57183819817777E-17  -2.57182707318537E-17   3.30279088958691E-15   0.00000000000000E+00   0.00000000000000E+00
      0.00000000000000E+00   0.00000000000000E+00  -1.11249927806266E-22  -1.15048079114825E-19  -1.15159329042632E-19
     -1.39594959433398E-15   0.00000000000000E+00   0.00000000000000E+00   0.00000000000000E+00   0.00000000000000E+00
      3.98996701790015E-30   2.58334300608923E-17   2.58334300608963E-17  -1.90684129525294E-15
      0.00000000000000E+00
      0.00000000000000E+00   0.00000000000000E+00   0.00000000000000E+00   0.00000000000000E+00  -1.20446206294263E-23
      2.38269703499860E-19   2.38257658879231E-19   3.30279088958691E-15   0.00000000000000E+00   0.00000000000000E+00
      0.00000000000000E+00   0.00000000000000E+00   1.20446298485225E-23   2.95999850866307E-20   2.96120297164792E-20
     -1.39594959433398E-15   0.00000000000000E+00   0.00000000000000E+00   0.00000000000000E+00   0.00000000000000E+00
     -3.98865908739093E-30  -2.67869688591721E-19  -2.67869688595710E-19  -1.90684129525294E-15
      1.00000000000000E-01
      8.00000000000000E-02   8.00000000000000E-02   0.00000000000000E+00   0.00000000000000E+00   1.32032018628799E-15
      3.40746330638475E-19   1.32066093261863E-15   3.40671983216627E-15   0.00000000000000E+00   0.00000000000000E+00
      0.00000000000000E+00   0.00000000000000E+00  -1.83350510349024E-18  -1.71479913218149E-16  -1.73313418321639E-16
     -1.49913151186063E-15   0.00000000000000E+00   0.00000000000000E+00   0.00000000000000E+00   0.00000000000000E+00
     -2.28697587592597E-17  -1.12447775553773E-15  -1.14734751429699E-15  -1.90758832030564E-15
      2.00000000000000E-01
      1.60000000000000E-01   1.60000000000000E-01   0.00000000000000E+00   0.00000000000000E+00   1.97630843626581E-15
      3.43236553567893E-19   1.97665167281938E-15   3.50800701758483E-15   0.00000000000000E+00   0.00000000000000E+00
      0.00000000000000E+00   0.00000000000000E+00  -1.91151646153273E-18  -2.51628094933621E-16  -2.53539611395153E-16
     -1.59967197552062E-15   0.00000000000000E+00   0.00000000000000E+00   0.00000000000000E+00   0.00000000000000E+00
     -2.29805923672120E-17  -1.70013146905702E-15  -1.72311206142423E-15  -1.90833504206421E-15
      3.00000000000000E-01
      2.40000000000000E-01   2.40000000000000E-01   0.00000000000000E+00   0.00000000000000E+00   2.50611698735127E-15
      2.05857181753249E-19   2.50632284453303E-15   3.60715747480073E-15   0.00000000000000E+00   0.00000000000000E+00
      0.00000000000000E+00   0.00000000000000E+00  -1.91487155349222E-18  -3.17161960962230E-16  -3.19076832515722E-16
     -1.69807579181376E-15   0.00000000000000E+00   0.00000000000000E+00   0.00000000000000E+00   0.00000000000000E+00
     -2.29806739050945E-17  -2.16426533811221E-15  -2.18724601201731E-15  -1.90908168298696E-15
      4.00000000000000E-01
      3.20000000000000E-01   3.20000000000000E-01   0.00000000000000E+00   0.00000000000000E+00   2.98029859041414E-15
      2.93242906519474E-19   2.98059183332066E-15   3.70450601963765E-15   0.00000000000000E+00   0.00000000000000E+00
      0.00000000000000E+00   0.00000000000000E+00  -1.91518783190421E-18  -3.81985211749024E-16  -3.83900399580928E-16
     -1.79467776497360E-15   0.00000000000000E+00   0.00000000000000E+00   0.00000000000000E+00   0.00000000000000E+00
     -2.29806983314452E-17  -2.57371073540828E-15  -2.59669143373973E-15  -1.90982825466404E-15
      5.00000000000000E-01
      4.00000000000000E-01   4.00000000000000E-01   0.00000000000000E+00   0.00000000000000E+00   3.41966233325356E-15
     -7.66311141943459E-19   3.41889602211161E-15   3.80026722837920E-15   0.00000000000000E+00   0.00000000000000E+00
      0.00000000000000E+00   0.00000000000000E+00  -1.91539390132044E-18  -4.47177706357917E-16  -4.49093100259237E-16
     -1.88969253928846E-15   0.00000000000000E+00   0.00000000000000E+00   0.00000000000000E+00   0.00000000000000E+00
     -2.29807233121672E-17  -2.94682219854021E-15  -2.96980292185238E-15  -1.91057468909074E-15
      6.00000000000000E-01
      4.80000000000000E-01   4.80000000000000E-01   0.00000000000000E+00   0.00000000000000E+00   3.82922270847651E-15
      5.80238507951814E-21   3.82922851086159E-15   3.89456167143759E-15   0.00000000000000E+00   0.00000000000000E+00
      0.00000000000000E+00   0.00000000000000E+00  -1.91558607976073E-18  -5.07124650320752E-16  -5.09040236400513E-16
     -1.98324077369600E-15   0.00000000000000E+00   0.00000000000000E+00   0.00000000000000E+00   0.00000000000000E+00
     -2.29807483072578E-17  -3.29720752615382E-15  -3.32018827446108E-15  -1.91132089774160E-15
      7.00000000000000E-01
      5.60000000000000E-01   5.60000000000000E-01   0.00000000000000E+00   0.00000000000000E+00   4.21467265538314E-15
     -2.88134386822649E-20   4.21464384194446E-15   3.98742719402105E-15   0.00000000000000E+00   0.00000000000000E+00
      0.00000000000000E+00   0.00000000000000E+00  -1.91576455589718E-18  -5.61891143788671E-16  -5.63806908344568E-16
     -2.07536039821645E-15   0.00000000000000E+00   0.00000000000000E+00   0.00000000000000E+00   0.00000000000000E+00
     -2.29807732992808E-17  -3.62785616030061E-15  -3.65083693359989E-15  -1.91206679580460E-15
      8.00000000000000E-01
      6.40000000000000E-01   6.40000000000000E-01   0.00000000000000E+00   0.00000000000000E+00   4.58148705709649E-15
      2.72132200406053E-20   4.58151427031653E-15   4.07882249309890E-15   0.00000000000000E+00   0.00000000000000E+00
      0.00000000000000E+00   0.00000000000000E+00  -1.91593210028740E-18  -6.14849299086562E-16  -6.16765231186850E-16
     -2.16601018341332E-15   0.00000000000000E+00   0.00000000000000E+00   0.00000000000000E+00   0.00000000000000E+00
     -2.29807982847573E-17  -3.94176824084492E-15  -3.96474903912968E-15  -1.91281230968558E-15
      9.00000000000000E-01
      7.20000000000000E-01   7.20000000000000E-01   0.00000000000000E+00   0.00000000000000E+00   4.93313085612539E-15
      1.67013260938257E-18   4.93480098873478E-15   4.16863509399378E-15   0.00000000000000E+00   0.00000000000000E+00
      0.00000000000000E+00   0.00000000000000E+00  -1.91608952199667E-18  -6.67874425445168E-16  -6.69790514967165E-16
     -2.25507771851997E-15   0.00000000000000E+00   0.00000000000000E+00   0.00000000000000E+00   0.00000000000000E+00
     -2.29808232611941E-17  -4.24202965050641E-15  -4.26501047376761E-15  -1.91355737547381E-15
      1.00000000000000E+00
      8.00000000000000E-01   8.00000000000000E-01   0.00000000000000E+00   0.00000000000000E+00   5.27227687926195E-15
     -2.68512613793766E-19   5.27200836664816E-15   4.25671792716672E-15   0.00000000000000E+00   0.00000000000000E+00
      0.00000000000000E+00   0.00000000000000E+00  -1.91623783957999E-18  -7.22381822440919E-16  -7.24298060280499E-16
     -2.34241599716395E-15   0.00000000000000E+00   0.00000000000000E+00   0.00000000000000E+00   0.00000000000000E+00
     -2.29808482262054E-17  -4.52472945814145E-15  -4.54771030636765E-15  -1.91430193000279E-15
      0.00000000000000E+00
      8.00000000000000E-01   8.00000000000000E-01   0.00000000000000E+00   0.00000000000000E+00   5.27227687934225E-15
      4.84849893891175E-19   5.27276172923614E-15   4.25671792716673E-15   0.00000000000000E+00   0.00000000000000E+00
      0.00000000000000E+00   0.00000000000000E+00  -1.91623791991505E-18  -7.22395876140473E-16  -7.24312114060388E-16
     -2.34241599716395E-15   0.00000000000000E+00   0.00000000000000E+00   0.00000000000000E+00   0.00000000000000E+00
     -2.29808482262056E-17  -4.52546876694954E-15  -4.54844961517575E-15  -1.91430193000279E-15
      1.00000000000000E-02
      8.00000000000000E-01   8.00000000000000E-01   0.00000000000000E+00   0.00000000000000E+00   6.81823423626148E-15
     -1.20443459221261E-20   6.81822219191556E-15   4.26134539907284E-15   0.00000000000000E+00   0.00000000000000E+00
      0.00000000000000E+00   0.00000000000000E+00  -1.91623791714517E-18  -7.16531428762871E-16  -7.18447666680016E-16
     -2.34240111178767E-15  -5.00000000000000E-01  -5.00000000000000E-01   0.00000000000000E+00   0.00000000000000E+00
     -2.29810088761548E-17  -6.07679351635938E-15  -6.09977452523554E-15  -1.91894428728518E-15
      2.00000000000000E-02
      8.00000000000000E-01   8.00000000000000E-01   0.00000000000000E+00   0.00000000000000E+00   8.10092431043460E-15
      3.06313276481024E-19   8.10123062371108E-15   4.26590429138698E-15   0.00000000000000E+00   0.00000000000000E+00
      0.00000000000000E+00   0.00000000000000E+00  -1.91623789688598E-18  -7.12390784201951E-16  -7.14307022098837E-16
     -2.34233401047657E-15  -1.00000000000000E+00  -1.00000000000000E+00   0.00000000000000E+00   0.00000000000000E+00
     -2.29811594137509E-17  -7.36394244219849E-15  -7.38692360161224E-15  -1.92357028091041E-15
      3.00000000000000E-02
      8.00000000000000E-01   8.00000000000000E-01   0.00000000000000E+00   0.00000000000000E+00   9.20689441416040E-15
      3.83092259542114E-18   9.21072533675582E-15   4.27027885728169E-15   0.00000000000000E+00   0.00000000000000E+00
      0.00000000000000E+00   0.00000000000000E+00  -1.91623782741951E-18  -7.09890650281574E-16  -7.11806888108994E-16
     -2.34208691277988E-15  -1.50000000000000E+00  -1.50000000000000E+00   0.00000000000000E+00   0.00000000000000E+00
     -2.29813148467533E-17  -8.47593713380007E-15  -8.49891844864682E-15  -1.92819194450181E-15
      4.00000000000000E-02
      8.00000000000000E-01   8.00000000000000E-01   0.00000000000000E+00   0.00000000000000E+00   1.01463441139368E-14
     -2.71111057946932E-18   1.01436330033574E-14   4.27419235012084E-15   0.00000000000000E+00   0.00000000000000E+00
      0.00000000000000E+00   0.00000000000000E+00  -1.91623761811903E-18  -7.09537300080300E-16  -7.11453537698419E-16
     -2.34134817113483E-15  -2.00000000000000E+00  -2.00000000000000E+00   0.00000000000000E+00   0.00000000000000E+00
     -2.29814714681249E-17  -9.40919799419083E-15  -9.43217946565896E-15  -1.93284417898600E-15
      5.00000000000000E-02
      8.00000000000000E-01   8.00000000000000E-01   0.00000000000000E+00   0.00000000000000E+00   1.08783688505454E-14
      7.96031490138773E-19   1.08791648820355E-14   4.27717594620340E-15   0.00000000000000E+00   0.00000000000000E+00
      0.00000000000000E+00   0.00000000000000E+00  -1.91623711987283E-18  -7.12046765559997E-16  -7.13963002679870E-16
     -2.33957978679174E-15  -2.50000000000000E+00  -2.50000000000000E+00   0.00000000000000E+00   0.00000000000000E+00
     -2.29816316071571E-17  -1.01422202477485E-14  -1.01652018793556E-14  -1.93759615941167E-15
      6.00000000000000E-02
      8.00000000000000E-01   8.00000000000000E-01   0.00000000000000E+00   0.00000000000000E+00   1.14441627577515E-14
      9.36310608206092E-19   1.14450990683597E-14   4.27860221372344E-15   0.00000000000000E+00   0.00000000000000E+00
      0.00000000000000E+00   0.00000000000000E+00  -1.91623615125303E-18  -7.19138648410647E-16  -7.21054884561900E-16
     -2.33610234817290E-15  -3.00000000000000E+00  -3.00000000000000E+00   0.00000000000000E+00   0.00000000000000E+00
     -2.29817970234059E-17  -1.07010623867744E-14  -1.07240441837978E-14  -1.94249986555054E-15
      7.00000000000000E-02
      8.00000000000000E-01   8.00000000000000E-01   0.00000000000000E+00   0.00000000000000E+00   1.19209071851479E-14
     -3.00655192154642E-18   1.19179006332263E-14   4.27803671009123E-15   0.00000000000000E+00   0.00000000000000E+00
      0.00000000000000E+00   0.00000000000000E+00  -1.91623460715668E-18  -7.32767152557082E-16  -7.34683387164239E-16
     -2.33044835663614E-15  -3.50000000000000E+00  -3.50000000000000E+00   0.00000000000000E+00   0.00000000000000E+00
     -2.29819688449343E-17  -1.11602352772171E-14  -1.11832172460621E-14  -1.94758835345508E-15
      8.00000000000000E-02
      8.00000000000000E-01   8.00000000000000E-01   0.00000000000000E+00   0.00000000000000E+00   1.22943126746898E-14
      3.86080042505729E-18   1.22981734751149E-14   4.27559913716666E-15   0.00000000000000E+00   0.00000000000000E+00
      0.00000000000000E+00   0.00000000000000E+00  -1.91623256114087E-18  -7.54929132871740E-16  -7.56845365432881E-16
     -2.32271135754400E-15  -4.00000000000000E+00  -4.00000000000000E+00   0.00000000000000E+00   0.00000000000000E+00
     -2.29821479717021E-17  -1.15183459617103E-14  -1.15413281096820E-14  -1.95288777962266E-15
      9.00000000000000E-02
      8.00000000000000E-01   8.00000000000000E-01   0.00000000000000E+00   0.00000000000000E+00   1.25842387166187E-14
      1.41574159434043E-18   1.25856544582131E-14   4.27177293656127E-15   0.00000000000000E+00   0.00000000000000E+00
      0.00000000000000E+00   0.00000000000000E+00  -1.91623017344189E-18  -7.84879025851242E-16  -7.86795256024684E-16
     -2.31335561602021E-15  -4.50000000000000E+00  -4.50000000000000E+00   0.00000000000000E+00   0.00000000000000E+00
     -2.29823350717599E-17  -1.17758768671166E-14  -1.17988592021884E-14  -1.95841732054108E-15
      1.00000000000000E-01
      8.00000000000000E-01   8.00000000000000E-01   0.00000000000000E+00   0.00000000000000E+00   1.28037284091574E-14
     -1.26502841577659E-17   1.27910781249996E-14   4.26700009490550E-15   0.00000000000000E+00   0.00000000000000E+00
      0.00000000000000E+00   0.00000000000000E+00  -1.91622757316446E-18  -8.15747618345436E-16  -8.17663845918600E-16
     -2.30281219266052E-15  -5.00000000000000E+00  -5.00000000000000E+00   0.00000000000000E+00   0.00000000000000E+00
     -2.29825305371077E-17  -1.19504317485439E-14  -1.19734142790810E-14  -1.96418790224498E-15
      1.10000000000000E-01
      8.00000000000000E-01   8.00000000000000E-01   0.00000000000000E+00   0.00000000000000E+00   1.29619739049395E-14
     -1.64038841664515E-18   1.29603335165229E-14   4.26155922093972E-15   0.00000000000000E+00   0.00000000000000E+00
      0.00000000000000E+00   0.00000000000000E+00  -1.91622483022041E-18  -8.37599020120295E-16  -8.39515244950515E-16
     -2.29135513480912E-15  -5.50000000000000E+00  -5.50000000000000E+00   0.00000000000000E+00   0.00000000000000E+00
     -2.29827345462970E-17  -1.20978355370260E-14  -1.21208182715723E-14  -1.97020408613059E-15
      1.20000000000000E-01
      8.00000000000000E-01   8.00000000000000E-01   0.00000000000000E+00   0.00000000000000E+00   1.30739417152512E-14
     -2.69190559652977E-18   1.30712498096547E-14   4.25561191097790E-15   0.00000000000000E+00   0.00000000000000E+00
      0.00000000000000E+00   0.00000000000000E+00  -1.91622198584394E-18  -8.48256466037123E-16  -8.50172688022967E-16
     -2.27914505151206E-15  -6.00000000000000E+00  -6.00000000000000E+00   0.00000000000000E+00   0.00000000000000E+00
     -2.29829471580880E-17  -1.21980941744736E-14  -1.22210771216317E-14  -1.97646685946584E-15
      1.30000000000000E-01
      8.00000000000000E-01   8.00000000000000E-01   0.00000000000000E+00   0.00000000000000E+00   1.31567302521398E-14
      1.04587928102930E-17   1.31671890449501E-14   4.24925530973064E-15   0.00000000000000E+00   0.00000000000000E+00
      0.00000000000000E+00   0.00000000000000E+00  -1.91621905999505E-18  -8.51609038924049E-16  -8.53525257984044E-16
     -2.26627987710528E-15  -6.50000000000000E+00  -6.50000000000000E+00   0.00000000000000E+00   0.00000000000000E+00
     -2.29831683719067E-17  -1.22906806185942E-14  -1.23136637869661E-14  -1.98297543262536E-15
      1.40000000000000E-01
      8.00000000000000E-01   8.00000000000000E-01   0.00000000000000E+00   0.00000000000000E+00   1.32217035225926E-14
      7.55104594540595E-18   1.32292545685380E-14   4.24255192317073E-15   0.00000000000000E+00   0.00000000000000E+00
      0.00000000000000E+00   0.00000000000000E+00  -1.91621606378058E-18  -8.50510200808772E-16  -8.52426416872553E-16
     -2.25282376710273E-15  -7.00000000000000E+00  -7.00000000000000E+00   0.00000000000000E+00   0.00000000000000E+00
     -2.29833981587111E-17  -1.23538447535068E-14  -1.23768281516655E-14  -1.98972815606800E-15
      1.50000000000000E-01
      8.00000000000000E-01   8.00000000000000E-01   0.00000000000000E+00   0.00000000000000E+00   1.32748869055166E-14
     -6.10609304879762E-18   1.32687808124678E-14   4.23554465174679E-15   0.00000000000000E+00   0.00000000000000E+00
      0.00000000000000E+00   0.00000000000000E+00  -1.91621300943209E-18  -8.46759041140210E-16  -8.48675254149642E-16
     -2.23882167908073E-15  -7.50000000000000E+00  -7.50000000000000E+00   0.00000000000000E+00   0.00000000000000E+00
     -2.29836364762232E-17  -1.23971219218420E-14  -1.24201055583182E-14  -1.99672297266607E-15
      1.60000000000000E-01
      8.00000000000000E-01   8.00000000000000E-01   0.00000000000000E+00   0.00000000000000E+00   1.33194082189991E-14
      9.14707003050484E-18   1.33285552890296E-14   4.22826454596569E-15   0.00000000000000E+00   0.00000000000000E+00
      0.00000000000000E+00   0.00000000000000E+00  -1.91620990097454E-18  -8.41365682376257E-16  -8.43281892277231E-16
     -2.22430689531337E-15  -8.00000000000000E+00  -8.00000000000000E+00   0.00000000000000E+00   0.00000000000000E+00
     -2.29838832767778E-17  -1.24622895134756E-14  -1.24852733967524E-14  -2.00395765065232E-15
      1.70000000000000E-01
      8.00000000000000E-01   8.00000000000000E-01   0.00000000000000E+00   0.00000000000000E+00   1.33571428456917E-14
      1.40625232128490E-18   1.33585490980130E-14   4.22073509497150E-15   0.00000000000000E+00   0.00000000000000E+00
      0.00000000000000E+00   0.00000000000000E+00  -1.91620674408441E-18  -8.34618266596142E-16  -8.36534473340226E-16
     -2.20930518351820E-15  -8.50000000000000E+00  -8.50000000000000E+00   0.00000000000000E+00   0.00000000000000E+00
     -2.29841385116296E-17  -1.24990304861611E-14  -1.25220146246727E-14  -2.01142991145329E-15
      1.80000000000000E-01
      8.00000000000000E-01   8.00000000000000E-01   0.00000000000000E+00   0.00000000000000E+00   1.33894267691501E-14
     -3.24868873897669E-18   1.33861780804111E-14   4.21297477325262E-15   0.00000000000000E+00   0.00000000000000E+00
      0.00000000000000E+00   0.00000000000000E+00  -1.91620354368399E-18  -8.26684424175883E-16  -8.28600627719567E-16
     -2.19383727083605E-15  -9.00000000000000E+00  -9.00000000000000E+00   0.00000000000000E+00   0.00000000000000E+00
     -2.29844021334108E-17  -1.25345930505581E-14  -1.25575774526915E-14  -2.01913750241656E-15
      1.90000000000000E-01
      8.00000000000000E-01   8.00000000000000E-01   0.00000000000000E+00   0.00000000000000E+00   1.34172707076076E-14
      1.27887626270617E-18   1.34185495838704E-14   4.20499863060695E-15   0.00000000000000E+00   0.00000000000000E+00
      0.00000000000000E+00   0.00000000000000E+00  -1.91620030391794E-18  -8.17642744514728E-16  -8.19558944818646E-16
     -2.17792039376731E-15  -9.50000000000000E+00  -9.50000000000000E+00   0.00000000000000E+00   0.00000000000000E+00
     -2.29846740974933E-17  -1.25760059649542E-14  -1.25989906390517E-14  -2.02707823683964E-15
      2.00000000000000E-01
      8.00000000000000E-01   8.00000000000000E-01   0.00000000000000E+00   0.00000000000000E+00   1.34415420375945E-14
      4.47098950088970E-19   1.34419891365446E-14   4.19681931622250E-15   0.00000000000000E+00   0.00000000000000E+00
      0.00000000000000E+00   0.00000000000000E+00  -1.91619702401798E-18  -8.07651773806751E-16  -8.09567970830769E-16
     -2.16156930308669E-15  -1.00000000000000E+01  -1.00000000000000E+01   0.00000000000000E+00   0.00000000000000E+00
     -2.29849543626320E-17  -1.26094362113512E-14  -1.26324211657138E-14  -2.03525001313582E-15
      2.10000000000000E-01
      8.00000000000000E-01   8.00000000000000E-01   0.00000000000000E+00   0.00000000000000E+00   1.34630638377956E-14
     -3.82390206140767E-18   1.34592399357342E-14   4.18844776256501E-15   0.00000000000000E+00   0.00000000000000E+00
      0.00000000000000E+00   0.00000000000000E+00  -1.91619371110585E-18  -7.96315127035106E-16  -7.98231320746212E-16
     -2.14479694141719E-15  -1.05000000000000E+01  -1.05000000000000E+01   0.00000000000000E+00   0.00000000000000E+00
     -2.29852428911910E-17  -1.26380233720968E-14  -1.26610086149880E-14  -2.04365082114782E-15
      2.20000000000000E-01
      8.00000000000000E-01   8.00000000000000E-01   0.00000000000000E+00   0.00000000000000E+00   1.34826034513926E-14
      1.85652429420820E-17   1.35011686943347E-14   4.17989367649082E-15   0.00000000000000E+00   0.00000000000000E+00
      0.00000000000000E+00   0.00000000000000E+00  -1.91619036587975E-18  -7.82623212073776E-16  -7.84539402439656E-16
     -2.12761493474186E-15  -1.10000000000000E+01  -1.10000000000000E+01   0.00000000000000E+00   0.00000000000000E+00
     -2.29855396491302E-17  -1.26936437522459E-14  -1.27166292918950E-14  -2.05227874174896E-15
      2.30000000000000E-01
      8.00000000000000E-01   8.00000000000000E-01   0.00000000000000E+00   0.00000000000000E+00   1.35006736467609E-14
      9.48805612042594E-18   1.35101617028813E-14   4.17116593888986E-15   0.00000000000000E+00   0.00000000000000E+00
      0.00000000000000E+00   0.00000000000000E+00  -1.91618699017311E-18  -7.63103518259371E-16  -7.65019705249544E-16
     -2.11003399457420E-15  -1.15000000000000E+01  -1.15000000000000E+01   0.00000000000000E+00   0.00000000000000E+00
     -2.29858446059200E-17  -1.27221561530259E-14  -1.27451419976318E-14  -2.06113194431566E-15
      2.40000000000000E-01
      8.00000000000000E-01   8.00000000000000E-01   0.00000000000000E+00   0.00000000000000E+00   1.35175867283825E-14
      1.27632584010739E-17   1.35303499867836E-14   4.16227298363694E-15   0.00000000000000E+00   0.00000000000000E+00
      0.00000000000000E+00   0.00000000000000E+00  -1.91618358667003E-18  -7.25635280296112E-16  -7.27551463882782E-16
     -2.09206429840160E-15  -1.20000000000000E+01  -1.20000000000000E+01   0.00000000000000E+00   0.00000000000000E+00
     -2.29861577345081E-17  -1.27798123651663E-14  -1.28027985229008E-14  -2.07020868523535E-15
      2.50000000000000E-01
      8.00000000000000E-01   8.00000000000000E-01   0.00000000000000E+00   0.00000000000000E+00   1.35335494033723E-14
     -1.78024720351873E-18   1.35317691561687E-14   4.15322320683644E-15   0.00000000000000E+00   0.00000000000000E+00
      0.00000000000000E+00   0.00000000000000E+00  -1.91618015837986E-18  -6.30952721384460E-16  -6.32868901542840E-16
     -2.07371589736689E-15  -1.25000000000000E+01  -1.25000000000000E+01   0.00000000000000E+00   0.00000000000000E+00
     -2.29864790113690E-17  -1.28759137756145E-14  -1.28989002546259E-14  -2.07950730946955E-15
      2.60000000000000E-01
      8.00000000000000E-01   8.00000000000000E-01   0.00000000000000E+00   0.00000000000000E+00   1.35486859316650E-14
      1.94777199708011E-17   1.35681636516358E-14   4.14402544401848E-15   0.00000000000000E+00   0.00000000000000E+00
      0.00000000000000E+00   0.00000000000000E+00  -1.91617670676725E-18  -3.53006313018392E-16  -3.54922489725160E-16
     -2.05499918769002E-15  -1.30000000000000E+01  -1.30000000000000E+01   0.00000000000000E+00   0.00000000000000E+00
     -2.29868084167212E-17  -1.31902543534940E-14  -1.32132411619107E-14  -2.08902625632845E-15
      2.70000000000000E-01
      8.00000000000000E-01   8.00000000000000E-01   0.00000000000000E+00   0.00000000000000E+00   1.35630348395995E-14
     -2.84620140575213E-17   1.35345728255420E-14   4.13468953999297E-15   0.00000000000000E+00   0.00000000000000E+00
      0.00000000000000E+00   0.00000000000000E+00  -1.91617323316323E-18   5.04243575517312E-16   5.02327402284149E-16
     -2.03592547016173E-15  -1.35000000000000E+01  -1.35000000000000E+01   0.00000000000000E+00   0.00000000000000E+00
     -2.29871459348945E-17  -1.40139130818912E-14  -1.40369002278261E-14  -2.09876406983122E-15
      2.80000000000000E-01
      8.00000000000000E-01   8.00000000000000E-01   0.00000000000000E+00   0.00000000000000E+00   1.35765424507940E-14
     -8.43597918488443E-18   1.35681064716091E-14   4.12522701680960E-15   0.00000000000000E+00   0.00000000000000E+00
      0.00000000000000E+00   0.00000000000000E+00  -1.91616973936554E-18   3.15250072590666E-15   3.15058455616730E-15
     -2.01650760369091E-15  -1.40000000000000E+01  -1.40000000000000E+01   0.00000000000000E+00   0.00000000000000E+00
     -2.29874915548555E-17  -1.66957035362215E-14  -1.67186910277764E-14  -2.10871941311869E-15
      2.90000000000000E-01
      8.00000000000000E-01   8.00000000000000E-01   0.00000000000000E+00   0.00000000000000E+00   1.35890550385799E-14
      1.10330375283327E-17   1.36000880761082E-14   4.11565181502119E-15   0.00000000000000E+00   0.00000000000000E+00
      0.00000000000000E+00   0.00000000000000E+00  -1.91616622511103E-18   1.12016157528523E-14   1.11996995866272E-14
     -1.99676072975394E-15  -1.45000000000000E+01  -1.45000000000000E+01   0.00000000000000E+00   0.00000000000000E+00
     -2.29878452708049E-17  -2.47767998174647E-14  -2.47997876627355E-14  -2.11889108526725E-15
      3.00000000000000E-01
      8.00000000000000E-01   8.00000000000000E-01   0.00000000000000E+00   0.00000000000000E+00   1.36002863813116E-14
     -3.15904973929748E-18   1.35971273315723E-14   4.10598104404383E-15   0.00000000000000E+00   0.00000000000000E+00
      0.00000000000000E+00   0.00000000000000E+00  -1.91616267134955E-18   3.50989904703372E-14   3.50970743076658E-14
     -1.97670300615392E-15  -1.50000000000000E+01  -1.50000000000000E+01   0.00000000000000E+00   0.00000000000000E+00
     -2.29882070827982E-17  -4.86712134321554E-14  -4.86942016392382E-14  -2.12927803788989E-15
      3.10000000000000E-01
      8.00000000000000E-01   8.00000000000000E-01   0.00000000000000E+00   0.00000000000000E+00   1.36097230324679E-14
      1.81552767867295E-17   1.36278783092547E-14   4.09623564319347E-15   0.00000000000000E+00   0.00000000000000E+00
      0.00000000000000E+00   0.00000000000000E+00  -1.91615901332728E-18   1.04160194556165E-13   1.04158278397152E-13
     -1.95635625399841E-15  -1.55000000000000E+01  -1.55000000000000E+01   0.00000000000000E+00   0.00000000000000E+00
     -2.29885769972693E-17  -1.17763168129409E-13  -1.17786156706407E-13  -2.13987938919507E-15
      3.20000000000000E-01
      8.00000000000000E-01   8.00000000000000E-01   0.00000000000000E+00   0.00000000000000E+00   1.36163975958905E-14
      7.80467630929043E-18   1.36242022721998E-14   4.08644085601542E-15   0.00000000000000E+00   0.00000000000000E+00
      0.00000000000000E+00   0.00000000000000E+00  -1.91615498605252E-18   2.97961349711362E-13   2.97959433556376E-13
     -1.93574641900311E-15  -1.60000000000000E+01  -1.60000000000000E+01   0.00000000000000E+00   0.00000000000000E+00
     -2.29889550275369E-17  -3.11560646873551E-13  -3.11583635828578E-13  -2.15069443701230E-15
      3.30000000000000E-01
      8.00000000000000E-01   8.00000000000000E-01   0.00000000000000E+00   0.00000000000000E+00   1.36183677304767E-14
      3.07174179271888E-17   1.36490851484038E-14   4.07662649433717E-15   0.00000000000000E+00   0.00000000000000E+00
      0.00000000000000E+00   0.00000000000000E+00  -1.91614968221404E-18   8.24997364974955E-13   8.24995448825273E-13
     -1.91490381095333E-15  -1.65000000000000E+01  -1.65000000000000E+01   0.00000000000000E+00   0.00000000000000E+00
     -2.29893411947341E-17  -8.38621544632482E-13  -8.38644533973677E-13  -2.16172268338385E-15
      3.40000000000000E-01
      8.00000000000000E-01   8.00000000000000E-01   0.00000000000000E+00   0.00000000000000E+00   1.36115376137878E-14
     -2.09625562776858E-17   1.35905750575101E-14   4.06682713737992E-15   0.00000000000000E+00   0.00000000000000E+00
      0.00000000000000E+00   0.00000000000000E+00  -1.91614032383855E-18   2.21123475003319E-12   2.21123283389287E-12
     -1.89386323042346E-15  -1.70000000000000E+01  -1.70000000000000E+01   0.00000000000000E+00   0.00000000000000E+00
     -2.29897355304295E-17  -2.22480041921485E-12  -2.22482340895038E-12  -2.17296390695645E-15
      3.50000000000000E-01
      8.00000000000000E-01   8.00000000000000E-01   0.00000000000000E+00   0.00000000000000E+00   1.35871498211845E-14
     -1.28312700251197E-18   1.35858666941820E-14   4.05708265974579E-15   0.00000000000000E+00   0.00000000000000E+00
      0.00000000000000E+00   0.00000000000000E+00  -1.91611914319029E-18   5.73069712191563E-12   5.73069520579649E-12
     -1.87266429691545E-15  -1.75000000000000E+01  -1.75000000000000E+01   0.00000000000000E+00   0.00000000000000E+00
     -2.29901380838302E-17  -5.74425808235256E-12  -5.74428107249064E-12  -2.18441836283035E-15
      3.60000000000000E-01
      8.00000000000000E-01   8.00000000000000E-01   0.00000000000000E+00   0.00000000000000E+00   1.35270336192192E-14
     -1.41822849990693E-17   1.35128513342201E-14   4.04743975883749E-15   0.00000000000000E+00   0.00000000000000E+00