DF-ISE text

Info {
  version   = 1.0
  type      = xyplot
  datasets  = [
    "time"
    "Ntop OuterVoltage" "Ntop InnerVoltage" "Ntop QuasiFermiPotential" "Ntop DisplacementCurrent" "Ntop eCurrent"
    "Ntop hCurrent" "Ntop TotalCurrent" "Ntop Charge" "Ptop OuterVoltage" "Ptop InnerVoltage"
    "Ptop QuasiFermiPotential" "Ptop DisplacementCurrent" "Ptop eCurrent" "Ptop hCurrent" "Ptop TotalCurrent"
    "Ptop Charge" "Pbot OuterVoltage" "Pbot InnerVoltage" "Pbot QuasiFermiPotential" "Pbot DisplacementCurrent"
    "Pbot eCurrent" "Pbot hCurrent" "Pbot TotalCurrent" "Pbot Charge" ]
  functions = [
    Time
    OuterVoltage InnerVoltage QuasiFermiPotential DisplacementCurrent eCurrent
    hCurrent TotalCurrent Charge OuterVoltage InnerVoltage
    QuasiFermiPotential DisplacementCurrent eCurrent hCurrent TotalCurrent
    Charge OuterVoltage InnerVoltage QuasiFermiPotential DisplacementCurrent
    eCurrent hCurrent TotalCurrent Charge ]
}

Data {
      0.00000000000000E+00
      0.00000000000000E+00   0.00000000000000E+00   0.00000000000000E+00   0.00000000000000E+00   1.11249923982017E-22
     -2.57183819817777E-17  -2.57182707318537E-17   3.30279088958691E-15   0.00000000000000E+00   0.00000000000000E+00
      0.00000000000000E+00   0.00000000000000E+00  -1.11249924003392E-22  -1.15048079118628E-19  -1.15159329042632E-19
     -1.39594959433398E-15   0.00000000000000E+00   0.00000000000000E+00   0.00000000000000E+00   0.00000000000000E+00
      3.98996701790015E-30   2.58334300608923E-17   2.58334300608963E-17  -1.90684129525294E-15
      0.00000000000000E+00
      0.00000000000000E+00   0.00000000000000E+00   0.00000000000000E+00   0.00000000000000E+00  -1.20446206295024E-23
      2.38269703499860E-19   2.38257658879231E-19   3.30279088958691E-15   0.00000000000000E+00   0.00000000000000E+00
      0.00000000000000E+00   0.00000000000000E+00   1.20446183591738E-23   2.95999850981201E-20   2.96120297164793E-20
     -1.39594959433398E-15   0.00000000000000E+00   0.00000000000000E+00   0.00000000000000E+00   0.00000000000000E+00
     -3.98865908739093E-30  -2.67869688591721E-19  -2.67869688595710E-19  -1.90684129525294E-15
      1.00000000000000E-01
      8.00000000000000E-02   8.00000000000000E-02   0.00000000000000E+00   0.00000000000000E+00   4.61873155394874E-15
     -2.31101557404167E-20   4.61870844379300E-15   3.40671983215921E-15   0.00000000000000E+00   0.00000000000000E+00
      0.00000000000000E+00   0.00000000000000E+00  -9.42563633953981E-19  -3.47073979750245E-15  -3.47168236113640E-15
     -1.49913151185358E-15   0.00000000000000E+00   0.00000000000000E+00   0.00000000000000E+00   0.00000000000000E+00
     -2.28697587592465E-17  -1.12415632389736E-15  -1.14702608265660E-15  -1.90758832030563E-15
      2.00000000000000E-01
      1.60000000000000E-01   1.60000000000000E-01   0.00000000000000E+00   0.00000000000000E+00   6.14970430944651E-15
      3.35700274574652E-20   6.14973787947397E-15   3.50800701757577E-15   0.00000000000000E+00   0.00000000000000E+00
      0.00000000000000E+00   0.00000000000000E+00  -9.82572758323269E-19  -4.42585753035213E-15  -4.42684010311045E-15
     -1.59967197551158E-15   0.00000000000000E+00   0.00000000000000E+00   0.00000000000000E+00   0.00000000000000E+00
     -2.29805923672120E-17  -1.69991718399631E-15  -1.72289777636352E-15  -1.90833504206419E-15
      3.00000000000000E-01
      2.40000000000000E-01   2.40000000000000E-01   0.00000000000000E+00   0.00000000000000E+00   7.19533876169550E-15
     -2.16628966313181E-19   7.19512213272918E-15   3.60715747479043E-15   0.00000000000000E+00   0.00000000000000E+00
      0.00000000000000E+00   0.00000000000000E+00  -9.84932812628259E-19  -5.00731979203481E-15  -5.00830472484744E-15
     -1.69807579180349E-15   0.00000000000000E+00   0.00000000000000E+00   0.00000000000000E+00   0.00000000000000E+00
     -2.29806739050944E-17  -2.16383673397664E-15  -2.18681740788173E-15  -1.90908168298695E-15
      4.00000000000000E-01
      3.20000000000000E-01   3.20000000000000E-01   0.00000000000000E+00   0.00000000000000E+00   8.48608342572065E-15
      1.15151849122157E-18   8.48723494421187E-15   3.70450601962541E-15   0.00000000000000E+00   0.00000000000000E+00
      0.00000000000000E+00   0.00000000000000E+00  -9.85865034396248E-19  -5.88882903120309E-15  -5.88981489623749E-15
     -1.79467776496138E-15   0.00000000000000E+00   0.00000000000000E+00   0.00000000000000E+00   0.00000000000000E+00
     -2.29806983314450E-17  -2.57443934964296E-15  -2.59742004797440E-15  -1.90982825466403E-15
      5.00000000000000E-01
      4.00000000000000E-01   4.00000000000000E-01   0.00000000000000E+00   0.00000000000000E+00   1.00137183486607E-14
     -3.87572419421834E-19   1.00133307762413E-14   3.80026722836437E-15   0.00000000000000E+00   0.00000000000000E+00
      0.00000000000000E+00   0.00000000000000E+00  -9.86694630517378E-19  -7.04220899791079E-15  -7.04319569254130E-15
     -1.88969253927366E-15   0.00000000000000E+00   0.00000000000000E+00   0.00000000000000E+00   0.00000000000000E+00
     -2.29807233121672E-17  -2.94715436038787E-15  -2.97013508370004E-15  -1.91057468909072E-15
      6.00000000000000E-01
      4.80000000000000E-01   4.80000000000000E-01   0.00000000000000E+00   0.00000000000000E+00   1.12913604818934E-14
      2.18918939748984E-19   1.12915794008332E-14   3.89456167142085E-15   0.00000000000000E+00   0.00000000000000E+00
      0.00000000000000E+00   0.00000000000000E+00  -9.87471292845808E-19  -7.97020007269056E-15  -7.97118754398340E-15
     -1.98324077367927E-15   0.00000000000000E+00   0.00000000000000E+00   0.00000000000000E+00   0.00000000000000E+00
     -2.29807483072580E-17  -3.29741110854251E-15  -3.32039185684976E-15  -1.91132089774158E-15
      7.00000000000000E-01
      5.60000000000000E-01   5.60000000000000E-01   0.00000000000000E+00   0.00000000000000E+00   1.22803606503160E-14
     -1.82815337115449E-19   1.22801778349789E-14   3.98742719400309E-15   0.00000000000000E+00   0.00000000000000E+00
      0.00000000000000E+00   0.00000000000000E+00  -9.88201526852175E-19  -8.62851342296110E-15  -8.62950162448795E-15
     -2.07536039819851E-15   0.00000000000000E+00   0.00000000000000E+00   0.00000000000000E+00   0.00000000000000E+00
     -2.29807732992808E-17  -3.62769543719168E-15  -3.65067621049096E-15  -1.91206679580458E-15
      8.00000000000000E-01
      6.40000000000000E-01   6.40000000000000E-01   0.00000000000000E+00   0.00000000000000E+00   1.31527072073324E-14
     -1.10340003885980E-19   1.31525968673285E-14   4.07882249308002E-15   0.00000000000000E+00   0.00000000000000E+00
      0.00000000000000E+00   0.00000000000000E+00  -9.88889460754460E-19  -9.18692322603803E-15  -9.18791211549879E-15
     -2.16601018339446E-15   0.00000000000000E+00   0.00000000000000E+00   0.00000000000000E+00   0.00000000000000E+00
     -2.29807982847572E-17  -3.94170395354501E-15  -3.96468475182977E-15  -1.91281230968556E-15
      9.00000000000000E-01
      7.20000000000000E-01   7.20000000000000E-01   0.00000000000000E+00   0.00000000000000E+00   1.39729587382258E-14
      6.75293146738933E-19   1.39736340313726E-14   4.16863509397404E-15   0.00000000000000E+00   0.00000000000000E+00
      0.00000000000000E+00   0.00000000000000E+00  -9.89539513478487E-19  -9.70852337325209E-15  -9.70951291276557E-15
     -2.25507771850026E-15   0.00000000000000E+00   0.00000000000000E+00   0.00000000000000E+00   0.00000000000000E+00
     -2.29808232611943E-17  -4.24114029534587E-15  -4.26412111860707E-15  -1.91355737547379E-15
      1.00000000000000E+00
      8.00000000000000E-01   8.00000000000000E-01   0.00000000000000E+00   0.00000000000000E+00   1.47430125088142E-14
     -5.16751884000392E-20   1.47429608336258E-14   4.25671792714625E-15   0.00000000000000E+00   0.00000000000000E+00
      0.00000000000000E+00   0.00000000000000E+00  -9.90155334080632E-19  -1.01940675294609E-14  -1.01950576847950E-14
     -2.34241599714350E-15   0.00000000000000E+00   0.00000000000000E+00   0.00000000000000E+00   0.00000000000000E+00
     -2.29808482262057E-17  -4.52492230060451E-15  -4.54790314883072E-15  -1.91430193000276E-15
      0.00000000000000E+00
      8.00000000000000E-01   8.00000000000000E-01   0.00000000000000E+00   0.00000000000000E+00   1.47430125088965E-14
      5.64140920661475E-19   1.47435766498172E-14   4.25671792714626E-15   0.00000000000000E+00   0.00000000000000E+00
      0.00000000000000E+00   0.00000000000000E+00  -9.90155416491551E-19  -1.01940618843938E-14  -1.01950520398103E-14
     -2.34241599714350E-15   0.00000000000000E+00   0.00000000000000E+00   0.00000000000000E+00   0.00000000000000E+00
     -2.29808482262057E-17  -4.52554376178064E-15  -4.54852461000685E-15  -1.91430193000277E-15
      1.00000000000000E-02
      8.00000000000000E-01   8.00000000000000E-01   0.00000000000000E+00   0.00000000000000E+00   1.62889698657459E-14
      1.96364784879851E-18   1.62909335135947E-14   4.26134539905235E-15   0.00000000000000E+00   0.00000000000000E+00
      0.00000000000000E+00   0.00000000000000E+00  -9.90155410649567E-19  -1.01881865483374E-14  -1.01891767037480E-14
     -2.34240111176721E-15  -5.00000000000000E-01  -5.00000000000000E-01   0.00000000000000E+00   0.00000000000000E+00
     -2.29810088761548E-17  -6.07877580097055E-15  -6.10175680984670E-15  -1.91894428728516E-15
      2.00000000000000E-02
      8.00000000000000E-01   8.00000000000000E-01   0.00000000000000E+00   0.00000000000000E+00   1.75716599396099E-14
      1.35383126588591E-18   1.75730137708758E-14   4.26590429136650E-15   0.00000000000000E+00   0.00000000000000E+00
      0.00000000000000E+00   0.00000000000000E+00  -9.90155388529335E-19  -1.01840714316540E-14  -1.01850615870425E-14
     -2.34233401045611E-15  -1.00000000000000E+00  -1.00000000000000E+00   0.00000000000000E+00   0.00000000000000E+00
     -2.29811594137510E-17  -7.36497102441951E-15  -7.38795218383326E-15  -1.92357028091039E-15
      3.00000000000000E-02
      8.00000000000000E-01   8.00000000000000E-01   0.00000000000000E+00   0.00000000000000E+00   1.86776300421889E-14
     -2.00081746214052E-19   1.86774299604427E-14   4.27027885726118E-15   0.00000000000000E+00   0.00000000000000E+00
      0.00000000000000E+00   0.00000000000000E+00  -9.90155305116051E-19  -1.01816252175624E-14  -1.01826153728675E-14
     -2.34208691275941E-15  -1.50000000000000E+00  -1.50000000000000E+00   0.00000000000000E+00   0.00000000000000E+00
     -2.29813148467533E-17  -8.47183327272840E-15  -8.49481458757515E-15  -1.92819194450178E-15
      4.00000000000000E-02
      8.00000000000000E-01   8.00000000000000E-01   0.00000000000000E+00   0.00000000000000E+00   1.96170797385359E-14
     -1.14340430206934E-18   1.96159363342339E-14   4.27419235010033E-15   0.00000000000000E+00   0.00000000000000E+00
      0.00000000000000E+00   0.00000000000000E+00  -9.90155054392395E-19  -1.01812023514294E-14  -1.01821925064838E-14
     -2.34134817111434E-15  -2.00000000000000E+00  -2.00000000000000E+00   0.00000000000000E+00   0.00000000000000E+00
     -2.29814714681249E-17  -9.41076235628207E-15  -9.43374382775019E-15  -1.93284417898598E-15
      5.00000000000000E-02
      8.00000000000000E-01   8.00000000000000E-01   0.00000000000000E+00   0.00000000000000E+00   2.03491044668767E-14
     -1.17808835006067E-18   2.03479263785266E-14   4.27717594618289E-15   0.00000000000000E+00   0.00000000000000E+00
      0.00000000000000E+00   0.00000000000000E+00  -9.90154458759458E-19  -1.01837379310053E-14  -1.01847280854640E-14
     -2.33957978677126E-15  -2.50000000000000E+00  -2.50000000000000E+00   0.00000000000000E+00   0.00000000000000E+00
     -2.29816316071569E-17  -1.01402166614554E-14  -1.01631982930626E-14  -1.93759615941164E-15
      6.00000000000000E-02
      8.00000000000000E-01   8.00000000000000E-01   0.00000000000000E+00   0.00000000000000E+00   2.09148983573460E-14
     -3.10344743689304E-18   2.09117949099091E-14   4.27860221370298E-15   0.00000000000000E+00   0.00000000000000E+00
      0.00000000000000E+00   0.00000000000000E+00  -9.90153296954458E-19  -1.01907571998414E-14  -1.01917473531383E-14
     -2.33610234815247E-15  -3.00000000000000E+00  -3.00000000000000E+00   0.00000000000000E+00   0.00000000000000E+00
     -2.29817970234058E-17  -1.06970657597474E-14  -1.07200475567708E-14  -1.94249986555051E-15
      7.00000000000000E-02
      8.00000000000000E-01   8.00000000000000E-01   0.00000000000000E+00   0.00000000000000E+00   2.13916427557024E-14
      5.41704847365465E-19   2.13921844605498E-14   4.27803671007093E-15   0.00000000000000E+00   0.00000000000000E+00
      0.00000000000000E+00   0.00000000000000E+00  -9.90151443267539E-19  -1.02044626004850E-14  -1.02054527519283E-14
     -2.33044835661585E-15  -3.50000000000000E+00  -3.50000000000000E+00   0.00000000000000E+00   0.00000000000000E+00
     -2.29819688449344E-17  -1.11637497397766E-14  -1.11867317086215E-14  -1.94758835345507E-15
      8.00000000000000E-02
      8.00000000000000E-01   8.00000000000000E-01   0.00000000000000E+00   0.00000000000000E+00   2.17650482012431E-14
      5.37668360971618E-18   2.17704248848528E-14   4.27559913714653E-15   0.00000000000000E+00   0.00000000000000E+00
      0.00000000000000E+00   0.00000000000000E+00  -9.90148980505533E-19  -1.02266279810388E-14  -1.02276181300193E-14
     -2.32271135752388E-15  -4.00000000000000E+00  -4.00000000000000E+00   0.00000000000000E+00   0.00000000000000E+00
     -2.29821479717020E-17  -1.15198246068618E-14  -1.15428067548335E-14  -1.95288777962265E-15
      9.00000000000000E-02
      8.00000000000000E-01   8.00000000000000E-01   0.00000000000000E+00   0.00000000000000E+00   2.20549741830693E-14
      8.25992816942997E-18   2.20632341112387E-14   4.27177293654132E-15   0.00000000000000E+00   0.00000000000000E+00
      0.00000000000000E+00   0.00000000000000E+00  -9.90146098085811E-19  -1.02566345948422E-14  -1.02576247409403E-14
     -2.31335561600025E-15  -4.50000000000000E+00  -4.50000000000000E+00   0.00000000000000E+00   0.00000000000000E+00
     -2.29823350717600E-17  -1.17826270352266E-14  -1.18056093702984E-14  -1.95841732054108E-15
      1.00000000000000E-01
      8.00000000000000E-01   8.00000000000000E-01   0.00000000000000E+00   0.00000000000000E+00   2.22744637989290E-14
      5.76532362919802E-18   2.22802291225582E-14   4.26700009488571E-15   0.00000000000000E+00   0.00000000000000E+00
      0.00000000000000E+00   0.00000000000000E+00  -9.90142950278974E-19  -1.02874164714222E-14  -1.02884066143725E-14
     -2.30281219264070E-15  -5.00000000000000E+00  -5.00000000000000E+00   0.00000000000000E+00   0.00000000000000E+00
     -2.29825305371082E-17  -1.19688399776486E-14  -1.19918225081857E-14  -1.96418790224502E-15
      1.10000000000000E-01
      8.00000000000000E-01   8.00000000000000E-01   0.00000000000000E+00   0.00000000000000E+00   2.24327092010635E-14
      4.12371226023801E-18   2.24368329133238E-14   4.26155922092001E-15   0.00000000000000E+00   0.00000000000000E+00
      0.00000000000000E+00   0.00000000000000E+00  -9.90139625173338E-19  -1.03092384977400E-14  -1.03102286373651E-14
     -2.29135513478942E-15  -5.50000000000000E+00  -5.50000000000000E+00   0.00000000000000E+00   0.00000000000000E+00
     -2.29827345462972E-17  -1.21036215414123E-14  -1.21266042759586E-14  -1.97020408613060E-15
      1.20000000000000E-01
      8.00000000000000E-01   8.00000000000000E-01   0.00000000000000E+00   0.00000000000000E+00   2.25446769001880E-14
     -2.59744850008415E-18   2.25420794516879E-14   4.25561191095829E-15   0.00000000000000E+00   0.00000000000000E+00
      0.00000000000000E+00   0.00000000000000E+00  -9.90136169202730E-19  -1.03199479049674E-14  -1.03209380411366E-14
     -2.27914505149245E-15  -6.00000000000000E+00  -6.00000000000000E+00   0.00000000000000E+00   0.00000000000000E+00
     -2.29829471580879E-17  -1.21981584633933E-14  -1.22211414105514E-14  -1.97646685946584E-15
      1.30000000000000E-01
      8.00000000000000E-01   8.00000000000000E-01   0.00000000000000E+00   0.00000000000000E+00   2.26274653075197E-14
      9.12565614199090E-18   2.26365909636617E-14   4.24925530971112E-15   0.00000000000000E+00   0.00000000000000E+00
      0.00000000000000E+00   0.00000000000000E+00  -9.90132609167452E-19  -1.03232228208593E-14  -1.03242129534685E-14
     -2.26627987708575E-15  -6.50000000000000E+00  -6.50000000000000E+00   0.00000000000000E+00   0.00000000000000E+00
     -2.29831683719068E-17  -1.22893948418213E-14  -1.23123780101932E-14  -1.98297543262536E-15
      1.40000000000000E-01
      8.00000000000000E-01   8.00000000000000E-01   0.00000000000000E+00   0.00000000000000E+00   2.26924384290477E-14
      5.11488175117420E-18   2.26975533107989E-14   4.24255192315129E-15   0.00000000000000E+00   0.00000000000000E+00
      0.00000000000000E+00   0.00000000000000E+00  -9.90128961594192E-19  -1.03221672951076E-14  -1.03231574240692E-14
     -2.25282376708328E-15  -7.00000000000000E+00  -7.00000000000000E+00   0.00000000000000E+00   0.00000000000000E+00
     -2.29833981587108E-17  -1.23514124885709E-14  -1.23743958867297E-14  -1.98972815606800E-15
      1.50000000000000E-01
      8.00000000000000E-01   8.00000000000000E-01   0.00000000000000E+00   0.00000000000000E+00   2.27456216425742E-14
     -9.32860881009619E-19   2.27446887816931E-14   4.23554465172744E-15   0.00000000000000E+00   0.00000000000000E+00
      0.00000000000000E+00   0.00000000000000E+00  -9.90125237428811E-19  -1.03184714142072E-14  -1.03194615394446E-14
     -2.23882167906135E-15  -7.50000000000000E+00  -7.50000000000000E+00   0.00000000000000E+00   0.00000000000000E+00
     -2.29836364762231E-17  -1.24022436057724E-14  -1.24252272422486E-14  -1.99672297266609E-15
      1.60000000000000E-01
      8.00000000000000E-01   8.00000000000000E-01   0.00000000000000E+00   0.00000000000000E+00   2.27901427650052E-14
      4.33738940716802E-18   2.27944801544123E-14   4.22826454594638E-15   0.00000000000000E+00   0.00000000000000E+00
      0.00000000000000E+00   0.00000000000000E+00  -9.90121443159538E-19  -1.03130383035692E-14  -1.03140284250124E-14
     -2.22430689529406E-15  -8.00000000000000E+00  -8.00000000000000E+00   0.00000000000000E+00   0.00000000000000E+00
     -2.29838832767775E-17  -1.24574678461232E-14  -1.24804517294000E-14  -2.00395765065232E-15
      1.70000000000000E-01
      8.00000000000000E-01   8.00000000000000E-01   0.00000000000000E+00   0.00000000000000E+00   2.28278771777374E-14
     -4.72288427527178E-18   2.28231542934621E-14   4.22073509495225E-15   0.00000000000000E+00   0.00000000000000E+00
      0.00000000000000E+00   0.00000000000000E+00  -9.90117586491636E-19  -1.03062569985676E-14  -1.03072471161541E-14
     -2.20930518349896E-15  -8.50000000000000E+00  -8.50000000000000E+00   0.00000000000000E+00   0.00000000000000E+00
     -2.29841385116297E-17  -1.24929230387964E-14  -1.25159071773080E-14  -2.01142991145329E-15
      1.80000000000000E-01
      8.00000000000000E-01   8.00000000000000E-01   0.00000000000000E+00   0.00000000000000E+00   2.28601608630014E-14
     -1.49524291246566E-17   2.28452084338767E-14   4.21297477323342E-15   0.00000000000000E+00   0.00000000000000E+00
      0.00000000000000E+00   0.00000000000000E+00  -9.90113672644625E-19  -1.02983203468091E-14  -1.02993104604817E-14
     -2.19383727081687E-15  -9.00000000000000E+00  -9.00000000000000E+00   0.00000000000000E+00   0.00000000000000E+00
     -2.29844021334110E-17  -1.25229135712616E-14  -1.25458979733950E-14  -2.01913750241655E-15
      1.90000000000000E-01
      8.00000000000000E-01   8.00000000000000E-01   0.00000000000000E+00   0.00000000000000E+00   2.28880045376355E-14
      1.42098649143553E-17   2.29022144025498E-14   4.20499863058789E-15   0.00000000000000E+00   0.00000000000000E+00
      0.00000000000000E+00   0.00000000000000E+00  -9.90109703131551E-19  -1.02893226189040E-14  -1.02903127286072E-14
     -2.17792039374819E-15  -9.50000000000000E+00  -9.50000000000000E+00   0.00000000000000E+00   0.00000000000000E+00
     -2.29846740974933E-17  -1.25889169998452E-14  -1.26119016739427E-14  -2.02707823683969E-15
      2.00000000000000E-01
      8.00000000000000E-01   8.00000000000000E-01   0.00000000000000E+00   0.00000000000000E+00   2.29122755767192E-14
      7.78825314245214E-18   2.29200638298616E-14   4.19681931620347E-15   0.00000000000000E+00   0.00000000000000E+00
      0.00000000000000E+00   0.00000000000000E+00  -9.90105687097619E-19  -1.02792914763534E-14  -1.02802815820405E-14
     -2.16156930306762E-15  -1.00000000000000E+01  -1.00000000000000E+01   0.00000000000000E+00   0.00000000000000E+00
     -2.29849543626330E-17  -1.26167972934585E-14  -1.26397822478211E-14  -2.03525001313586E-15
      2.10000000000000E-01
      8.00000000000000E-01   8.00000000000000E-01   0.00000000000000E+00   0.00000000000000E+00   2.29337970573976E-14
      6.36879219697520E-18   2.29401658495946E-14   4.18844776254605E-15   0.00000000000000E+00   0.00000000000000E+00
      0.00000000000000E+00   0.00000000000000E+00  -9.90101622630005E-19  -1.02679669451078E-14  -1.02689570467304E-14
     -2.14479694139817E-15  -1.05000000000000E+01  -1.05000000000000E+01   0.00000000000000E+00   0.00000000000000E+00
     -2.29852428911909E-17  -1.26482235599730E-14  -1.26712088028642E-14  -2.04365082114787E-15
      2.20000000000000E-01
      8.00000000000000E-01   8.00000000000000E-01   0.00000000000000E+00   0.00000000000000E+00   2.29533363212552E-14
     -1.48927407699400E-17   2.29384435804852E-14   4.17989367647181E-15   0.00000000000000E+00   0.00000000000000E+00
      0.00000000000000E+00   0.00000000000000E+00  -9.90097516075833E-19  -1.02542862522262E-14  -1.02552763497422E-14
     -2.12761493472290E-15  -1.10000000000000E+01  -1.10000000000000E+01   0.00000000000000E+00   0.00000000000000E+00
     -2.29855396491293E-17  -1.26601816910939E-14  -1.26831672307430E-14  -2.05227874174891E-15
      2.30000000000000E-01
      8.00000000000000E-01   8.00000000000000E-01   0.00000000000000E+00   0.00000000000000E+00   2.29714061349930E-14
      4.27263619585812E-18   2.29756787711889E-14   4.17116593887097E-15   0.00000000000000E+00   0.00000000000000E+00
      0.00000000000000E+00   0.00000000000000E+00  -9.90093368463421E-19  -1.02347647999281E-14  -1.02357548932965E-14
     -2.11003399455529E-15  -1.15000000000000E+01  -1.15000000000000E+01   0.00000000000000E+00   0.00000000000000E+00
     -2.29858446059201E-17  -1.27169380332864E-14  -1.27399238778924E-14  -2.06113194431568E-15
      2.40000000000000E-01
      8.00000000000000E-01   8.00000000000000E-01   0.00000000000000E+00   0.00000000000000E+00   2.29883188013571E-14
     -1.04657539839364E-17   2.29778530473732E-14   4.16227298361807E-15   0.00000000000000E+00   0.00000000000000E+00
      0.00000000000000E+00   0.00000000000000E+00  -9.90089183878330E-19  -1.01972834492845E-14  -1.01982735384684E-14
     -2.09206429838275E-15  -1.20000000000000E+01  -1.20000000000000E+01   0.00000000000000E+00   0.00000000000000E+00
     -2.29861577345078E-17  -1.27565933511703E-14  -1.27795795089048E-14  -2.07020868523533E-15
      2.50000000000000E-01
      8.00000000000000E-01   8.00000000000000E-01   0.00000000000000E+00   0.00000000000000E+00   2.30042810256785E-14
     -5.50827073407960E-18   2.29987727549444E-14   4.15322320681767E-15   0.00000000000000E+00   0.00000000000000E+00
      0.00000000000000E+00   0.00000000000000E+00  -9.90084963123404E-19  -1.01025465679285E-14  -1.01035366528916E-14
     -2.07371589734808E-15  -1.25000000000000E+01  -1.25000000000000E+01   0.00000000000000E+00   0.00000000000000E+00
     -2.29864790113693E-17  -1.28722496230414E-14  -1.28952361020528E-14  -2.07950730946958E-15
      2.60000000000000E-01
      8.00000000000000E-01   8.00000000000000E-01   0.00000000000000E+00   0.00000000000000E+00   2.30194170661051E-14
     -2.30038467792278E-17   2.29964132193259E-14   4.14402544399967E-15   0.00000000000000E+00   0.00000000000000E+00
      0.00000000000000E+00   0.00000000000000E+00  -9.90080710057756E-19  -9.82464418209748E-15  -9.82563426280754E-15
     -2.05499918767127E-15  -1.30000000000000E+01  -1.30000000000000E+01   0.00000000000000E+00   0.00000000000000E+00
     -2.29868084167206E-17  -1.31477921481016E-14  -1.31707789565183E-14  -2.08902625632840E-15
      2.70000000000000E-01
      8.00000000000000E-01   8.00000000000000E-01   0.00000000000000E+00   0.00000000000000E+00   2.30337654472442E-14
     -1.43726756299208E-17   2.30193927716142E-14   4.13468953997433E-15   0.00000000000000E+00   0.00000000000000E+00
      0.00000000000000E+00   0.00000000000000E+00  -9.90076427672995E-19  -8.96742319072230E-15  -8.96841326714998E-15
     -2.03592547014303E-15  -1.35000000000000E+01  -1.35000000000000E+01   0.00000000000000E+00   0.00000000000000E+00
     -2.29871459348949E-17  -1.40279923585293E-14  -1.40509795044642E-14  -2.09876406983130E-15
      2.80000000000000E-01
      8.00000000000000E-01   8.00000000000000E-01   0.00000000000000E+00   0.00000000000000E+00   2.30472724911313E-14
     -2.04785002730661E-17   2.30267939908582E-14   4.12522701679096E-15   0.00000000000000E+00   0.00000000000000E+00
      0.00000000000000E+00   0.00000000000000E+00  -9.90072115185860E-19  -6.31916644547327E-15  -6.32015651758845E-15
     -2.01650760367226E-15  -1.40000000000000E+01  -1.40000000000000E+01   0.00000000000000E+00   0.00000000000000E+00
     -2.29874915548552E-17  -1.66836499817149E-14  -1.67066374732697E-14  -2.10871941311870E-15
      2.90000000000000E-01
      8.00000000000000E-01   8.00000000000000E-01   0.00000000000000E+00   0.00000000000000E+00   2.30597844698044E-14
      2.20291359982155E-17   2.30818136058026E-14   4.11565181500265E-15   0.00000000000000E+00   0.00000000000000E+00
      0.00000000000000E+00   0.00000000000000E+00  -9.90067772633274E-19   1.72993609870240E-15   1.72894603092976E-15
     -1.99676072973531E-15  -1.45000000000000E+01  -1.45000000000000E+01   0.00000000000000E+00   0.00000000000000E+00
     -2.29878452708047E-17  -2.47877717914616E-14  -2.48107596367324E-14  -2.11889108526733E-15
      3.00000000000000E-01
      8.00000000000000E-01   8.00000000000000E-01   0.00000000000000E+00   0.00000000000000E+00   2.30710151607826E-14
      6.32188887730850E-18   2.30773370496599E-14   4.10598104402534E-15   0.00000000000000E+00   0.00000000000000E+00
      0.00000000000000E+00   0.00000000000000E+00  -9.90063388390358E-19   2.56274110510817E-14   2.56264209876933E-14
     -1.97670300613536E-15  -1.50000000000000E+01  -1.50000000000000E+01   0.00000000000000E+00   0.00000000000000E+00
     -2.29882070827982E-17  -4.86807698302702E-14  -4.87037580373530E-14  -2.12927803788997E-15
      3.10000000000000E-01
      8.00000000000000E-01   8.00000000000000E-01   0.00000000000000E+00   0.00000000000000E+00   2.30804511173216E-14
     -5.84442489926101E-18   2.30746066924223E-14   4.09623564317494E-15   0.00000000000000E+00   0.00000000000000E+00
      0.00000000000000E+00   0.00000000000000E+00  -9.90058892666961E-19   9.46885067293259E-14   9.46875166704333E-14
     -1.95635625397988E-15  -1.55000000000000E+01  -1.55000000000000E+01   0.00000000000000E+00   0.00000000000000E+00
     -2.29885769972686E-17  -1.17739134785859E-13  -1.17762123362856E-13  -2.13987938919507E-15
      3.20000000000000E-01
      8.00000000000000E-01   8.00000000000000E-01   0.00000000000000E+00   0.00000000000000E+00   2.30871249438237E-14
     -2.54638078187072E-17   2.30616611360050E-14   4.08644085599692E-15   0.00000000000000E+00   0.00000000000000E+00
      0.00000000000000E+00   0.00000000000000E+00  -9.90054029603074E-19   2.88489674404401E-13   2.88488684350371E-13
     -1.93574641898463E-15  -1.60000000000000E+01  -1.60000000000000E+01   0.00000000000000E+00   0.00000000000000E+00
     -2.29889550275379E-17  -3.11527356531349E-13  -3.11550345486377E-13  -2.15069443701228E-15
      3.30000000000000E-01
      8.00000000000000E-01   8.00000000000000E-01   0.00000000000000E+00   0.00000000000000E+00   2.30890943005662E-14
     -1.95892280668631E-17   2.30695050724993E-14   4.07662649431867E-15   0.00000000000000E+00   0.00000000000000E+00
      0.00000000000000E+00   0.00000000000000E+00  -9.90047905018469E-19   8.15525724186829E-13   8.15524734138924E-13
     -1.91490381093487E-15  -1.65000000000000E+01  -1.65000000000000E+01   0.00000000000000E+00   0.00000000000000E+00
     -2.29893411947339E-17  -8.38571249870229E-13  -8.38594239211424E-13  -2.16172268338380E-15
      3.40000000000000E-01
      8.00000000000000E-01   8.00000000000000E-01   0.00000000000000E+00   0.00000000000000E+00   2.30822633671746E-14
     -1.37611295207208E-18   2.30808872542225E-14   4.06682713736162E-15   0.00000000000000E+00   0.00000000000000E+00
      0.00000000000000E+00   0.00000000000000E+00  -9.90037774157461E-19   2.20176306628112E-12   2.20176207624335E-12
     -1.89386323040504E-15  -1.70000000000000E+01  -1.70000000000000E+01   0.00000000000000E+00   0.00000000000000E+00
     -2.29897355304297E-17  -2.22481997376204E-12  -2.22484296349757E-12  -2.17296390695657E-15
      3.50000000000000E-01
      8.00000000000000E-01   8.00000000000000E-01   0.00000000000000E+00   0.00000000000000E+00   2.30578747212153E-14
      9.29772564313487E-18   2.30671724468584E-14   4.05708265972751E-15   0.00000000000000E+00   0.00000000000000E+00
      0.00000000000000E+00   0.00000000000000E+00  -9.90015920333251E-19   5.72122548760704E-12   5.72122449759111E-12
     -1.87266429689706E-15  -1.75000000000000E+01  -1.75000000000000E+01   0.00000000000000E+00   0.00000000000000E+00
     -2.29901380838301E-17  -5.74426867989987E-12  -5.74429167003795E-12  -2.18441836283045E-15
      3.60000000000000E-01
      8.00000000000000E-01   8.00000000000000E-01   0.00000000000000E+00   0.00000000000000E+00   2.29977576303588E-14
      2.96671056095269E-18   2.30007243409198E-14   4.04743975881924E-15   0.00000000000000E+00   0.00000000000000E+00