DF-ISE text

Info {
  version   = 1.0
  type      = xyplot
  datasets  = [
    "time"
    "Ntop OuterVoltage" "Ntop InnerVoltage" "Ntop QuasiFermiPotential" "Ntop DisplacementCurrent" "Ntop eCurrent"
    "Ntop hCurrent" "Ntop TotalCurrent" "Ntop Charge" "Ptop OuterVoltage" "Ptop InnerVoltage"
    "Ptop QuasiFermiPotential" "Ptop DisplacementCurrent" "Ptop eCurrent" "Ptop hCurrent" "Ptop TotalCurrent"
    "Ptop Charge" "Pbot OuterVoltage" "Pbot InnerVoltage" "Pbot QuasiFermiPotential" "Pbot DisplacementCurrent"
    "Pbot eCurrent" "Pbot hCurrent" "Pbot TotalCurrent" "Pbot Charge" ]
  functions = [
    Time
    OuterVoltage InnerVoltage QuasiFermiPotential DisplacementCurrent eCurrent
    hCurrent TotalCurrent Charge OuterVoltage InnerVoltage
    QuasiFermiPotential DisplacementCurrent eCurrent hCurrent TotalCurrent
    Charge OuterVoltage InnerVoltage QuasiFermiPotential DisplacementCurrent
    eCurrent hCurrent TotalCurrent Charge ]
}

Data {
      0.00000000000000E+00
      0.00000000000000E+00   0.00000000000000E+00   0.00000000000000E+00   0.00000000000000E+00   1.11249923982071E-22
     -2.57183819817777E-17  -2.57182707318537E-17   3.30279088958691E-15   0.00000000000000E+00   0.00000000000000E+00
      0.00000000000000E+00   0.00000000000000E+00  -1.11249927460551E-22  -1.15048079115171E-19  -1.15159329042631E-19
     -1.39594959433398E-15   0.00000000000000E+00   0.00000000000000E+00   0.00000000000000E+00   0.00000000000000E+00
      3.98996701790015E-30   2.58334300608923E-17   2.58334300608963E-17  -1.90684129525294E-15
      0.00000000000000E+00
      0.00000000000000E+00   0.00000000000000E+00   0.00000000000000E+00   0.00000000000000E+00  -1.20446206294332E-23
      2.38269703499860E-19   2.38257658879231E-19   3.30279088958691E-15   0.00000000000000E+00   0.00000000000000E+00
      0.00000000000000E+00   0.00000000000000E+00   1.20446286111281E-23   2.95999850878681E-20   2.96120297164792E-20
     -1.39594959433398E-15   0.00000000000000E+00   0.00000000000000E+00   0.00000000000000E+00   0.00000000000000E+00
     -3.98865908739093E-30  -2.67869688591721E-19  -2.67869688595710E-19  -1.90684129525294E-15
      1.00000000000000E-01
      8.00000000000000E-02   8.00000000000000E-02   0.00000000000000E+00   0.00000000000000E+00   1.64486490756505E-15
      1.00259507846347E-19   1.64496516707290E-15   3.40671983216552E-15   0.00000000000000E+00   0.00000000000000E+00
      0.00000000000000E+00   0.00000000000000E+00  -1.57983396282115E-18  -4.96305677163636E-16  -4.97885511126457E-16
     -1.49913151185989E-15   0.00000000000000E+00   0.00000000000000E+00   0.00000000000000E+00   0.00000000000000E+00
     -2.28697587592567E-17  -1.12420989718719E-15  -1.14707965594644E-15  -1.90758832030563E-15
      2.00000000000000E-01
      1.60000000000000E-01   1.60000000000000E-01   0.00000000000000E+00   0.00000000000000E+00   2.38147665352755E-15
      2.12232960518003E-19   2.38168888648807E-15   3.50800701758389E-15   0.00000000000000E+00   0.00000000000000E+00
      0.00000000000000E+00   0.00000000000000E+00  -1.64838178230722E-18  -6.57035591480911E-16  -6.58683973263219E-16
     -1.59967197551969E-15   0.00000000000000E+00   0.00000000000000E+00   0.00000000000000E+00   0.00000000000000E+00
     -2.29805923672120E-17  -1.70002432085764E-15  -1.72300491322485E-15  -1.90833504206420E-15
      3.00000000000000E-01
      2.40000000000000E-01   2.40000000000000E-01   0.00000000000000E+00   0.00000000000000E+00   2.95817201453378E-15
      4.57480540815877E-19   2.95862949507460E-15   3.60715747479967E-15   0.00000000000000E+00   0.00000000000000E+00
      0.00000000000000E+00   0.00000000000000E+00  -1.65201547376491E-18  -7.69560040182847E-16  -7.71212055656612E-16
     -1.69807579181272E-15   0.00000000000000E+00   0.00000000000000E+00   0.00000000000000E+00   0.00000000000000E+00
     -2.29806739050946E-17  -2.16443676551289E-15  -2.18741743941799E-15  -1.90908168298696E-15
      4.00000000000000E-01
      3.20000000000000E-01   3.20000000000000E-01   0.00000000000000E+00   0.00000000000000E+00   3.50654047624375E-15
      4.39542983859938E-19   3.50698001922761E-15   3.70450601963641E-15   0.00000000000000E+00   0.00000000000000E+00
      0.00000000000000E+00   0.00000000000000E+00  -1.65311685982751E-18  -9.08506881070478E-16  -9.10159997930305E-16
     -1.79467776497237E-15   0.00000000000000E+00   0.00000000000000E+00   0.00000000000000E+00   0.00000000000000E+00
     -2.29806983314453E-17  -2.57383932296587E-15  -2.59682002129731E-15  -1.90982825466403E-15
      5.00000000000000E-01
      4.00000000000000E-01   4.00000000000000E-01   0.00000000000000E+00   0.00000000000000E+00   4.04479634347066E-15
      2.45858091059886E-19   4.04504220156172E-15   3.80026722837773E-15   0.00000000000000E+00   0.00000000000000E+00
      0.00000000000000E+00   0.00000000000000E+00  -1.65408519838928E-18  -1.07259943107664E-15  -1.07425351627503E-15
     -1.88969253928699E-15   0.00000000000000E+00   0.00000000000000E+00   0.00000000000000E+00   0.00000000000000E+00
     -2.29807233121674E-17  -2.94780796197451E-15  -2.97078868528668E-15  -1.91057468909073E-15
      6.00000000000000E-01
      4.80000000000000E-01   4.80000000000000E-01   0.00000000000000E+00   0.00000000000000E+00   4.53323272371977E-15
     -1.48207600597139E-19   4.53308451611917E-15   3.89456167143593E-15   0.00000000000000E+00   0.00000000000000E+00
      0.00000000000000E+00   0.00000000000000E+00  -1.65498447714311E-18  -1.21140198028988E-15  -1.21305696476703E-15
     -1.98324077369434E-15   0.00000000000000E+00   0.00000000000000E+00   0.00000000000000E+00   0.00000000000000E+00
     -2.29807483072579E-17  -3.29704680304489E-15  -3.32002755135215E-15  -1.91132089774159E-15
      7.00000000000000E-01
      5.60000000000000E-01   5.60000000000000E-01   0.00000000000000E+00   0.00000000000000E+00   4.97351141345441E-15
     -3.71448270493005E-19   4.97313996518392E-15   3.98742719401927E-15   0.00000000000000E+00   0.00000000000000E+00
      0.00000000000000E+00   0.00000000000000E+00  -1.65582422200150E-18  -1.32096866167850E-15  -1.32262448590050E-15
     -2.07536039821467E-15   0.00000000000000E+00   0.00000000000000E+00   0.00000000000000E+00   0.00000000000000E+00
     -2.29807732992809E-17  -3.62753470598414E-15  -3.65051547928342E-15  -1.91206679580459E-15
      8.00000000000000E-01
      6.40000000000000E-01   6.40000000000000E-01   0.00000000000000E+00   0.00000000000000E+00   5.38624524591707E-15
      3.02089805721038E-19   5.38654733572280E-15   4.07882249309704E-15   0.00000000000000E+00   0.00000000000000E+00
      0.00000000000000E+00   0.00000000000000E+00  -1.65661184503627E-18  -1.41986310914803E-15  -1.42151972099307E-15
     -2.16601018341145E-15   0.00000000000000E+00   0.00000000000000E+00   0.00000000000000E+00   0.00000000000000E+00
     -2.29807982847572E-17  -3.94204681644498E-15  -3.96502761472974E-15  -1.91281230968558E-15
      9.00000000000000E-01
      7.20000000000000E-01   7.20000000000000E-01   0.00000000000000E+00   0.00000000000000E+00   5.78045305180672E-15
      1.32698746137856E-18   5.78178003926810E-15   4.16863509399182E-15   0.00000000000000E+00   0.00000000000000E+00
      0.00000000000000E+00   0.00000000000000E+00  -1.65735299943879E-18  -1.51540151344925E-15  -1.51705886644869E-15
     -2.25507771851802E-15   0.00000000000000E+00   0.00000000000000E+00   0.00000000000000E+00   0.00000000000000E+00
     -2.29808232611942E-17  -4.24174034955823E-15  -4.26472117281942E-15  -1.91355737547380E-15
      1.00000000000000E+00
      8.00000000000000E-01   8.00000000000000E-01   0.00000000000000E+00   0.00000000000000E+00   6.15873723744980E-15
     -6.16741518086010E-20   6.15867556329799E-15   4.25671792716470E-15   0.00000000000000E+00   0.00000000000000E+00
      0.00000000000000E+00   0.00000000000000E+00  -1.65805257049417E-18  -1.60906077726890E-15  -1.61071882983940E-15
     -2.34241599716192E-15   0.00000000000000E+00   0.00000000000000E+00   0.00000000000000E+00   0.00000000000000E+00
     -2.29808482262055E-17  -4.52497588523239E-15  -4.54795673345860E-15  -1.91430193000278E-15
      0.00000000000000E+00
      8.00000000000000E-01   8.00000000000000E-01   0.00000000000000E+00   0.00000000000000E+00   6.15873723753100E-15
      4.97385221608172E-19   6.15923462275260E-15   4.25671792716470E-15   0.00000000000000E+00   0.00000000000000E+00
      0.00000000000000E+00   0.00000000000000E+00  -1.65805265172311E-18  -1.60909480641601E-15  -1.61075285906773E-15
     -2.34241599716192E-15   0.00000000000000E+00   0.00000000000000E+00   0.00000000000000E+00   0.00000000000000E+00
     -2.29808482262056E-17  -4.52550091545866E-15  -4.54848176368487E-15  -1.91430193000278E-15
      1.00000000000000E-02
      8.00000000000000E-01   8.00000000000000E-01   0.00000000000000E+00   0.00000000000000E+00   7.70469459444165E-15
      4.63490593637811E-19   7.70515808503529E-15   4.26134539907081E-15   0.00000000000000E+00   0.00000000000000E+00
      0.00000000000000E+00   0.00000000000000E+00  -1.65805264641713E-18  -1.60321115044411E-15  -1.60486920309053E-15
     -2.34240111178564E-15  -5.00000000000000E-01  -5.00000000000000E-01   0.00000000000000E+00   0.00000000000000E+00
     -2.29810088761549E-17  -6.07730787306861E-15  -6.10028888194477E-15  -1.91894428728517E-15
      2.00000000000000E-02
      8.00000000000000E-01   8.00000000000000E-01   0.00000000000000E+00   0.00000000000000E+00   8.98738466858791E-15
      1.54738029062746E-18   8.98893204887854E-15   4.26590429138497E-15   0.00000000000000E+00   0.00000000000000E+00
      0.00000000000000E+00   0.00000000000000E+00  -1.65805262786463E-18  -1.59911819115541E-15  -1.60077624378327E-15
     -2.34233401047454E-15  -1.00000000000000E+00  -1.00000000000000E+00   0.00000000000000E+00   0.00000000000000E+00
     -2.29811594137510E-17  -7.36517464568151E-15  -7.38815580509526E-15  -1.92357028091041E-15
      3.00000000000000E-02
      8.00000000000000E-01   8.00000000000000E-01   0.00000000000000E+00   0.00000000000000E+00   1.00933547722029E-14
      1.51319921587446E-18   1.00948679714187E-14   4.27027885727966E-15   0.00000000000000E+00   0.00000000000000E+00
      0.00000000000000E+00   0.00000000000000E+00  -1.65805255328277E-18  -1.59667016024490E-15  -1.59832821279818E-15
     -2.34208691277786E-15  -1.50000000000000E+00  -1.50000000000000E+00   0.00000000000000E+00   0.00000000000000E+00
     -2.29813148467533E-17  -8.47355844377381E-15  -8.49653975862056E-15  -1.92819194450180E-15
      4.00000000000000E-02
      8.00000000000000E-01   8.00000000000000E-01   0.00000000000000E+00   0.00000000000000E+00   1.10328044716524E-14
      3.01846836790151E-18   1.10358229400203E-14   4.27419235011880E-15   0.00000000000000E+00   0.00000000000000E+00
      0.00000000000000E+00   0.00000000000000E+00  -1.65805233341988E-18  -1.59626379402624E-15  -1.59792184635966E-15
     -2.34134817113278E-15  -2.00000000000000E+00  -2.00000000000000E+00   0.00000000000000E+00   0.00000000000000E+00
     -2.29814714681250E-17  -9.41491962219254E-15  -9.43790109366066E-15  -1.93284417898601E-15
      5.00000000000000E-02
      8.00000000000000E-01   8.00000000000000E-01   0.00000000000000E+00   0.00000000000000E+00   1.17648292074712E-14
      3.10163469074651E-18   1.17679308421619E-14   4.27717594620136E-15   0.00000000000000E+00   0.00000000000000E+00
      0.00000000000000E+00   0.00000000000000E+00  -1.65805180820107E-18  -1.59873508025156E-15  -1.60039313205976E-15
     -2.33957978678969E-15  -2.50000000000000E+00  -2.50000000000000E+00   0.00000000000000E+00   0.00000000000000E+00
     -2.29816316071571E-17  -1.01445560784950E-14  -1.01675377101021E-14  -1.93759615941167E-15
      6.00000000000000E-02
      8.00000000000000E-01   8.00000000000000E-01   0.00000000000000E+00   0.00000000000000E+00   1.23306231130776E-14
      5.53999681103529E-18   1.23361631098886E-14   4.27860221372139E-15   0.00000000000000E+00   0.00000000000000E+00
      0.00000000000000E+00   0.00000000000000E+00  -1.65805078371140E-18  -1.60578938388480E-15  -1.60744743466851E-15
     -2.33610234817085E-15  -3.00000000000000E+00  -3.00000000000000E+00   0.00000000000000E+00   0.00000000000000E+00
     -2.29817970234060E-17  -1.07057338781967E-14  -1.07287156752201E-14  -1.94249986555054E-15
      7.00000000000000E-02
      8.00000000000000E-01   8.00000000000000E-01   0.00000000000000E+00   0.00000000000000E+00   1.28073675377130E-14
     -6.88912289477099E-19   1.28066786254235E-14   4.27803671008919E-15   0.00000000000000E+00   0.00000000000000E+00
      0.00000000000000E+00   0.00000000000000E+00  -1.65804915578823E-18  -1.61949964310904E-15  -1.62115769226483E-15
     -2.33044835663411E-15  -3.50000000000000E+00  -3.50000000000000E+00   0.00000000000000E+00   0.00000000000000E+00
     -2.29819688449345E-17  -1.11625389643137E-14  -1.11855209331586E-14  -1.94758835345508E-15
      8.00000000000000E-02
      8.00000000000000E-01   8.00000000000000E-01   0.00000000000000E+00   0.00000000000000E+00   1.31807730230813E-14
      5.76097896312001E-18   1.31865340020445E-14   4.27559913716465E-15   0.00000000000000E+00   0.00000000000000E+00
      0.00000000000000E+00   0.00000000000000E+00  -1.65804699062346E-18  -1.64161917616324E-15  -1.64327722315386E-15
     -2.32271135754199E-15  -4.00000000000000E+00  -4.00000000000000E+00   0.00000000000000E+00   0.00000000000000E+00
     -2.29821479717024E-17  -1.15202746309189E-14  -1.15432567788906E-14  -1.95288777962266E-15
      9.00000000000000E-02
      8.00000000000000E-01   8.00000000000000E-01   0.00000000000000E+00   0.00000000000000E+00   1.34706990593331E-14
     -7.72901848288696E-18   1.34629700408502E-14   4.27177293655928E-15   0.00000000000000E+00   0.00000000000000E+00
      0.00000000000000E+00   0.00000000000000E+00  -1.65804446583564E-18  -1.67163556090432E-15  -1.67329360537016E-15
     -2.31335561601822E-15  -4.50000000000000E+00  -4.50000000000000E+00   0.00000000000000E+00   0.00000000000000E+00
     -2.29823350717599E-17  -1.17666941004082E-14  -1.17896764354800E-14  -1.95841732054105E-15
      1.00000000000000E-01
      8.00000000000000E-01   8.00000000000000E-01   0.00000000000000E+00   0.00000000000000E+00   1.36901887446447E-14
      4.58614620048971E-18   1.36947748908452E-14   4.26700009490358E-15   0.00000000000000E+00   0.00000000000000E+00
      0.00000000000000E+00   0.00000000000000E+00  -1.65804171052632E-18  -1.70246225875181E-15  -1.70412030046233E-15
     -2.30281219265856E-15  -5.00000000000000E+00  -5.00000000000000E+00   0.00000000000000E+00   0.00000000000000E+00
     -2.29825305371082E-17  -1.19676720598458E-14  -1.19906545903829E-14  -1.96418790224502E-15
      1.10000000000000E-01
      8.00000000000000E-01   8.00000000000000E-01   0.00000000000000E+00   0.00000000000000E+00   1.38484342316419E-14
      4.05929790960455E-18   1.38524935295515E-14   4.26155922093778E-15   0.00000000000000E+00   0.00000000000000E+00
      0.00000000000000E+00   0.00000000000000E+00  -1.65803880540982E-18  -1.72420978514757E-15  -1.72586782395298E-15
     -2.29135513480718E-15  -5.50000000000000E+00  -5.50000000000000E+00   0.00000000000000E+00   0.00000000000000E+00
     -2.29827345462973E-17  -1.21036429710522E-14  -1.21266257055985E-14  -1.97020408613060E-15
      1.20000000000000E-01
      8.00000000000000E-01   8.00000000000000E-01   0.00000000000000E+00   0.00000000000000E+00   1.39604020315770E-14
     -5.85662609568794E-18   1.39545454054814E-14   4.25561191097596E-15   0.00000000000000E+00   0.00000000000000E+00
      0.00000000000000E+00   0.00000000000000E+00  -1.65803578948220E-18  -1.73501398003148E-15  -1.73667201582097E-15
     -2.27914505151013E-15  -6.00000000000000E+00  -6.00000000000000E+00   0.00000000000000E+00   0.00000000000000E+00
     -2.29829471580877E-17  -1.21948904425023E-14  -1.22178733896604E-14  -1.97646685946583E-15
      1.30000000000000E-01
      8.00000000000000E-01   8.00000000000000E-01   0.00000000000000E+00   0.00000000000000E+00   1.40431905564272E-14
      1.15851357808740E-17   1.40547756922081E-14   4.24925530972872E-15   0.00000000000000E+00   0.00000000000000E+00
      0.00000000000000E+00   0.00000000000000E+00  -1.65803268567533E-18  -1.73828595961262E-15  -1.73994399229830E-15
     -2.26627987710337E-15  -6.50000000000000E+00  -6.50000000000000E+00   0.00000000000000E+00   0.00000000000000E+00
     -2.29831683719067E-17  -1.22918485315379E-14  -1.23148316999098E-14  -1.98297543262536E-15
      1.40000000000000E-01
      8.00000000000000E-01   8.00000000000000E-01   0.00000000000000E+00   0.00000000000000E+00   1.41081638130855E-14
      8.51052345503489E-18   1.41166743365405E-14   4.24255192316882E-15   0.00000000000000E+00   0.00000000000000E+00
      0.00000000000000E+00   0.00000000000000E+00  -1.65802950664989E-18  -1.73722382157397E-15  -1.73888185108062E-15
     -2.25282376710082E-15  -7.00000000000000E+00  -7.00000000000000E+00   0.00000000000000E+00   0.00000000000000E+00
     -2.29833981587109E-17  -1.23548090873012E-14  -1.23777924854599E-14  -1.98972815606800E-15
      1.50000000000000E-01
      8.00000000000000E-01   8.00000000000000E-01   0.00000000000000E+00   0.00000000000000E+00   1.41613471803549E-14
     -5.11512545947752E-18   1.41562320548955E-14   4.23554465174490E-15   0.00000000000000E+00   0.00000000000000E+00
      0.00000000000000E+00   0.00000000000000E+00  -1.65802626467482E-18  -1.73350413651820E-15  -1.73516216278287E-15
     -2.23882167907883E-15  -7.50000000000000E+00  -7.50000000000000E+00   0.00000000000000E+00   0.00000000000000E+00
     -2.29836364762228E-17  -1.23980862556364E-14  -1.24210698921126E-14  -1.99672297266607E-15
      1.60000000000000E-01
      8.00000000000000E-01   8.00000000000000E-01   0.00000000000000E+00   0.00000000000000E+00   1.42058684762150E-14
      9.89301494015292E-18   1.42157614911551E-14   4.22826454596379E-15   0.00000000000000E+00   0.00000000000000E+00
      0.00000000000000E+00   0.00000000000000E+00  -1.65802296562248E-18  -1.72813360733125E-15  -1.72979163029688E-15
     -2.22430689531147E-15  -8.00000000000000E+00  -8.00000000000000E+00   0.00000000000000E+00   0.00000000000000E+00
     -2.29838832767779E-17  -1.24629859775815E-14  -1.24859698608582E-14  -2.00395765065232E-15
      1.70000000000000E-01
      8.00000000000000E-01   8.00000000000000E-01   0.00000000000000E+00   0.00000000000000E+00   1.42436030831982E-14
      2.18927279727103E-18   1.42457923559955E-14   4.22073509496961E-15   0.00000000000000E+00   0.00000000000000E+00
      0.00000000000000E+00   0.00000000000000E+00  -1.65801961188446E-18  -1.72133753066527E-15  -1.72299555027716E-15
     -2.20930518351632E-15  -8.50000000000000E+00  -8.50000000000000E+00   0.00000000000000E+00   0.00000000000000E+00
     -2.29841385116297E-17  -1.24998126672067E-14  -1.25227968057184E-14  -2.01142991145329E-15
      1.80000000000000E-01
      8.00000000000000E-01   8.00000000000000E-01   0.00000000000000E+00   0.00000000000000E+00   1.42758869847419E-14
     -2.60223544170759E-18   1.42732847493002E-14   4.21297477325074E-15   0.00000000000000E+00   0.00000000000000E+00
      0.00000000000000E+00   0.00000000000000E+00  -1.65801621064027E-18  -1.71344924886176E-15  -1.71510726507240E-15
     -2.19383727083418E-15  -9.00000000000000E+00  -9.00000000000000E+00   0.00000000000000E+00   0.00000000000000E+00
     -2.29844021334110E-17  -1.25351930820944E-14  -1.25581774842278E-14  -2.01913750241656E-15
      1.90000000000000E-01
      8.00000000000000E-01   8.00000000000000E-01   0.00000000000000E+00   0.00000000000000E+00   1.43037308989520E-14
      1.78304878070379E-18   1.43055139477327E-14   4.20499863060509E-15   0.00000000000000E+00   0.00000000000000E+00
      0.00000000000000E+00   0.00000000000000E+00  -1.65801276539726E-18  -1.70443670311809E-15  -1.70609471588348E-15
     -2.17792039376544E-15  -9.50000000000000E+00  -9.50000000000000E+00   0.00000000000000E+00   0.00000000000000E+00
     -2.29846740974934E-17  -1.25764345577517E-14  -1.25994192318492E-14  -2.02707823683964E-15
      2.00000000000000E-01
      8.00000000000000E-01   8.00000000000000E-01   0.00000000000000E+00   0.00000000000000E+00   1.43280022022306E-14
      7.78432455480880E-19   1.43287806346861E-14   4.19681931622065E-15   0.00000000000000E+00   0.00000000000000E+00
      0.00000000000000E+00   0.00000000000000E+00  -1.65800927992209E-18  -1.69441215874416E-15  -1.69607016802408E-15
     -2.16156930308482E-15  -1.00000000000000E+01  -1.00000000000000E+01   0.00000000000000E+00   0.00000000000000E+00
     -2.29849543626326E-17  -1.26097255122994E-14  -1.26327104666620E-14  -2.03525001313582E-15
      2.10000000000000E-01
      8.00000000000000E-01   8.00000000000000E-01   0.00000000000000E+00   0.00000000000000E+00   1.43495239731189E-14
     -3.71874848230443E-18   1.43458052246366E-14   4.18844776256314E-15   0.00000000000000E+00   0.00000000000000E+00
      0.00000000000000E+00   0.00000000000000E+00  -1.65800575654636E-18  -1.68296716677304E-15  -1.68462517252958E-15
     -2.14479694141533E-15  -1.05000000000000E+01  -1.05000000000000E+01   0.00000000000000E+00   0.00000000000000E+00
     -2.29852428911910E-17  -1.26381948092158E-14  -1.26611800521070E-14  -2.04365082114782E-15
      2.20000000000000E-01
      8.00000000000000E-01   8.00000000000000E-01   0.00000000000000E+00   0.00000000000000E+00   1.43690635546537E-14
      1.87385903053772E-17   1.43878021449591E-14   4.17989367648898E-15   0.00000000000000E+00   0.00000000000000E+00
      0.00000000000000E+00   0.00000000000000E+00  -1.65800219692639E-18  -1.66937555901783E-15  -1.67103356121475E-15
     -2.12761493474000E-15  -1.10000000000000E+01  -1.10000000000000E+01   0.00000000000000E+00   0.00000000000000E+00
     -2.29855396491300E-17  -1.26937830440952E-14  -1.27167685837443E-14  -2.05227874174896E-15
      2.30000000000000E-01
      8.00000000000000E-01   8.00000000000000E-01   0.00000000000000E+00   0.00000000000000E+00   1.43871337150601E-14
      9.56283346780729E-18   1.43966965485279E-14   4.17116593888802E-15   0.00000000000000E+00   0.00000000000000E+00
      0.00000000000000E+00   0.00000000000000E+00  -1.65799860430633E-18  -1.64982154936212E-15  -1.65147954796642E-15
     -2.11003399457235E-15  -1.15000000000000E+01  -1.15000000000000E+01   0.00000000000000E+00   0.00000000000000E+00
     -2.29858446059204E-17  -1.27222311559556E-14  -1.27452170005615E-14  -2.06113194431566E-15
      2.40000000000000E-01
      8.00000000000000E-01   8.00000000000000E-01   0.00000000000000E+00   0.00000000000000E+00   1.44040467586634E-14
      1.26905944369699E-17   1.44167373531003E-14   4.16227298363511E-15   0.00000000000000E+00   0.00000000000000E+00
      0.00000000000000E+00   0.00000000000000E+00  -1.65799498267986E-18  -1.61235583814661E-15  -1.61401383312929E-15
     -2.09206429839976E-15  -1.20000000000000E+01  -1.20000000000000E+01   0.00000000000000E+00   0.00000000000000E+00
     -2.29861577345078E-17  -1.27797373622366E-14  -1.28027235199711E-14  -2.07020868523535E-15
      2.50000000000000E-01
      8.00000000000000E-01   8.00000000000000E-01   0.00000000000000E+00   0.00000000000000E+00   1.44200093924149E-14
     -1.96169205723052E-18   1.44180477003576E-14   4.15322320683461E-15   0.00000000000000E+00   0.00000000000000E+00
      0.00000000000000E+00   0.00000000000000E+00  -1.65799133318655E-18  -1.51769303516749E-15  -1.51935102650067E-15
     -2.07371589736504E-15  -1.25000000000000E+01  -1.25000000000000E+01   0.00000000000000E+00   0.00000000000000E+00
     -2.29864790113690E-17  -1.28757101948456E-14  -1.28986966738569E-14  -2.07950730946955E-15
      2.60000000000000E-01
      8.00000000000000E-01   8.00000000000000E-01   0.00000000000000E+00   0.00000000000000E+00   1.44351458760853E-14
      1.89529933017171E-17   1.44540988693870E-14   4.14402544401665E-15   0.00000000000000E+00   0.00000000000000E+00
      0.00000000000000E+00   0.00000000000000E+00  -1.65798765577713E-18  -1.23963902662816E-15  -1.24129701428394E-15
     -2.05499918768819E-15  -1.30000000000000E+01  -1.30000000000000E+01   0.00000000000000E+00   0.00000000000000E+00
     -2.29868084167212E-17  -1.31898150466864E-14  -1.32128018551031E-14  -2.08902625632845E-15
      2.70000000000000E-01
      8.00000000000000E-01   8.00000000000000E-01   0.00000000000000E+00   0.00000000000000E+00   1.44494947358589E-14
     -2.90232697733856E-17   1.44204714660855E-14   4.13468953999112E-15   0.00000000000000E+00   0.00000000000000E+00
      0.00000000000000E+00   0.00000000000000E+00  -1.65798395465142E-18  -3.82416848412242E-16  -3.84074832366893E-16
     -2.03592547015990E-15  -1.35000000000000E+01  -1.35000000000000E+01   0.00000000000000E+00   0.00000000000000E+00
     -2.29871459348942E-17  -1.40134094877837E-14  -1.40363966337186E-14  -2.09876406983122E-15
      2.80000000000000E-01
      8.00000000000000E-01   8.00000000000000E-01   0.00000000000000E+00   0.00000000000000E+00   1.44630022952107E-14
      7.24394583330430E-18   1.44702462410440E-14   4.12522701680780E-15   0.00000000000000E+00   0.00000000000000E+00
      0.00000000000000E+00   0.00000000000000E+00  -1.65798023186041E-18   2.26574640569353E-15   2.26408842546167E-15
     -2.01650760368908E-15  -1.40000000000000E+01  -1.40000000000000E+01   0.00000000000000E+00   0.00000000000000E+00
     -2.29874915548558E-17  -1.67113471749509E-14  -1.67343346665057E-14  -2.10871941311872E-15
      2.90000000000000E-01
      8.00000000000000E-01   8.00000000000000E-01   0.00000000000000E+00   0.00000000000000E+00   1.44755148273509E-14
      1.84399521621535E-17   1.44939547795131E-14   4.11565181501939E-15   0.00000000000000E+00   0.00000000000000E+00
      0.00000000000000E+00   0.00000000000000E+00  -1.65797648346730E-18   1.03148204087983E-14   1.03131624323148E-14
     -1.99676072975211E-15  -1.45000000000000E+01  -1.45000000000000E+01   0.00000000000000E+00   0.00000000000000E+00
     -2.29878452708048E-17  -2.47841293665571E-14  -2.48071172118279E-14  -2.11889108526727E-15
      3.00000000000000E-01
      8.00000000000000E-01   8.00000000000000E-01   0.00000000000000E+00   0.00000000000000E+00   1.44867461105647E-14
     -4.09087610300272E-18   1.44826552344617E-14   4.10598104404200E-15   0.00000000000000E+00   0.00000000000000E+00
      0.00000000000000E+00   0.00000000000000E+00  -1.65797269862277E-18   3.42123471918801E-14   3.42106892191815E-14
     -1.97670300615211E-15  -1.50000000000000E+01  -1.50000000000000E+01   0.00000000000000E+00   0.00000000000000E+00
     -2.29882070827981E-17  -4.86703562465604E-14  -4.86933444536431E-14  -2.12927803788989E-15
      3.10000000000000E-01
      8.00000000000000E-01   8.00000000000000E-01   0.00000000000000E+00   0.00000000000000E+00   1.44961826983004E-14
      1.71209123082646E-17   1.45133036106087E-14   4.09623564319166E-15   0.00000000000000E+00   0.00000000000000E+00
      0.00000000000000E+00   0.00000000000000E+00  -1.65796880469012E-18   1.03273461012248E-13   1.03271803043443E-13
     -1.95635625399659E-15  -1.55000000000000E+01  -1.55000000000000E+01   0.00000000000000E+00   0.00000000000000E+00
     -2.29885769972697E-17  -1.17762118077055E-13  -1.17785106654053E-13  -2.13987938919507E-15
      3.20000000000000E-01
      8.00000000000000E-01   8.00000000000000E-01   0.00000000000000E+00   0.00000000000000E+00   1.45028571944451E-14
      6.69447978498720E-18   1.45095516742301E-14   4.08644085601359E-15   0.00000000000000E+00   0.00000000000000E+00
      0.00000000000000E+00   0.00000000000000E+00  -1.65796454330066E-18   2.97074627777617E-13   2.97072969813073E-13
     -1.93574641900130E-15  -1.60000000000000E+01  -1.60000000000000E+01   0.00000000000000E+00   0.00000000000000E+00
     -2.29889550275379E-17  -3.11559532532277E-13  -3.11582521487305E-13  -2.15069443701230E-15
      3.30000000000000E-01
      8.00000000000000E-01   8.00000000000000E-01   0.00000000000000E+00   0.00000000000000E+00   1.45048272579850E-14
      2.94437262446118E-17   1.45342709842296E-14   4.07662649433537E-15   0.00000000000000E+00   0.00000000000000E+00
      0.00000000000000E+00   0.00000000000000E+00  -1.65795901079488E-18   8.24110656599705E-13   8.24108998640694E-13
     -1.91490381095152E-15  -1.65000000000000E+01  -1.65000000000000E+01   0.00000000000000E+00   0.00000000000000E+00
     -2.29893411947339E-17  -8.38620280283729E-13  -8.38643269624924E-13  -2.16172268338385E-15
      3.40000000000000E-01
      8.00000000000000E-01   8.00000000000000E-01   0.00000000000000E+00   0.00000000000000E+00   1.44979970665544E-14
     -2.24541360964731E-17   1.44755429304579E-14   4.06682713737811E-15   0.00000000000000E+00   0.00000000000000E+00
      0.00000000000000E+00   0.00000000000000E+00  -1.65794944019767E-18   2.21034805603983E-12   2.21034639809039E-12
     -1.89386323042165E-15  -1.70000000000000E+01  -1.70000000000000E+01   0.00000000000000E+00   0.00000000000000E+00
     -2.29897355304290E-17  -2.22479895128532E-12  -2.22482194102085E-12  -2.17296390695645E-15
      3.50000000000000E-01
      8.00000000000000E-01   8.00000000000000E-01   0.00000000000000E+00   0.00000000000000E+00   1.44736091953708E-14
     -2.71775871222975E-18   1.44708914366585E-14   4.05708265974399E-15   0.00000000000000E+00   0.00000000000000E+00
      0.00000000000000E+00   0.00000000000000E+00  -1.65792808013607E-18   5.72981042462587E-12   5.72980876669779E-12
     -1.87266429691365E-15  -1.75000000000000E+01  -1.75000000000000E+01   0.00000000000000E+00   0.00000000000000E+00
     -2.29901380838297E-17  -5.74425666799633E-12  -5.74427965813441E-12  -2.18441836283035E-15
      3.60000000000000E-01
      8.00000000000000E-01   8.00000000000000E-01   0.00000000000000E+00   0.00000000000000E+00   1.44134929101704E-14
     -1.57662180472517E-17   1.43977266921231E-14   4.04743975883569E-15   0.00000000000000E+00   0.00000000000000E+00