DF-ISE text

Info {
  version   = 1.0
  type      = xyplot
  datasets  = [
    "time"
    "Ntop OuterVoltage" "Ntop InnerVoltage" "Ntop QuasiFermiPotential" "Ntop DisplacementCurrent" "Ntop eCurrent"
    "Ntop hCurrent" "Ntop TotalCurrent" "Ntop Charge" "Ptop OuterVoltage" "Ptop InnerVoltage"
    "Ptop QuasiFermiPotential" "Ptop DisplacementCurrent" "Ptop eCurrent" "Ptop hCurrent" "Ptop TotalCurrent"
    "Ptop Charge" "Pbot OuterVoltage" "Pbot InnerVoltage" "Pbot QuasiFermiPotential" "Pbot DisplacementCurrent"
    "Pbot eCurrent" "Pbot hCurrent" "Pbot TotalCurrent" "Pbot Charge" ]
  functions = [
    Time
    OuterVoltage InnerVoltage QuasiFermiPotential DisplacementCurrent eCurrent
    hCurrent TotalCurrent Charge OuterVoltage InnerVoltage
    QuasiFermiPotential DisplacementCurrent eCurrent hCurrent TotalCurrent
    Charge OuterVoltage InnerVoltage QuasiFermiPotential DisplacementCurrent
    eCurrent hCurrent TotalCurrent Charge ]
}

Data {
      0.00000000000000E+00
      0.00000000000000E+00   0.00000000000000E+00   0.00000000000000E+00   0.00000000000000E+00   5.47245736879224E-20
     -2.62260372893530E-17  -2.61713127156651E-17   2.76043908183869E-15   0.00000000000000E+00   0.00000000000000E+00
      0.00000000000000E+00   0.00000000000000E+00  -5.47245737306824E-20   3.92607228477591E-19   3.37882654746909E-19
     -8.53597786585168E-16   0.00000000000000E+00   0.00000000000000E+00   0.00000000000000E+00   0.00000000000000E+00
      2.58094047177879E-29   2.58334300608923E-17   2.58334300609181E-17  -1.90684129525353E-15
      0.00000000000000E+00
      0.00000000000000E+00   0.00000000000000E+00   0.00000000000000E+00   0.00000000000000E+00  -1.07080141536937E-19
      6.45317565389679E-19   5.38237423852743E-19   2.76043908183726E-15   0.00000000000000E+00   0.00000000000000E+00
      0.00000000000000E+00   0.00000000000000E+00   1.07080141536517E-19  -2.43160853782647E-21   1.04648532998690E-19
     -8.53597786583731E-16   0.00000000000000E+00   0.00000000000000E+00   0.00000000000000E+00   0.00000000000000E+00
     -8.44667842534971E-30  -6.42885956842985E-19  -6.42885956851432E-19  -1.90684129525353E-15
      1.00000000000000E-01
      8.00000000000000E-02   8.00000000000000E-02   0.00000000000000E+00   0.00000000000000E+00   4.59921654278969E-15
     -1.25519400899219E-19   4.59909102338879E-15   2.83871844012814E-15   0.00000000000000E+00   0.00000000000000E+00
      0.00000000000000E+00   0.00000000000000E+00  -1.03872081985762E-18  -3.45101551885862E-15  -3.45205423967848E-15
     -9.31130119819500E-16   0.00000000000000E+00   0.00000000000000E+00   0.00000000000000E+00   0.00000000000000E+00
     -2.28697587606617E-17  -1.12416702494966E-15  -1.14703678371032E-15  -1.90758832030863E-15
      2.00000000000000E-01
      1.60000000000000E-01   1.60000000000000E-01   0.00000000000000E+00   0.00000000000000E+00   6.08044358154988E-15
     -5.38938765619578E-19   6.07990464278426E-15   2.91389419387474E-15   0.00000000000000E+00   0.00000000000000E+00
      0.00000000000000E+00   0.00000000000000E+00  -1.71754955217527E-18  -4.35571792100391E-15  -4.35743547055609E-15
     -1.00555915180287E-15   0.00000000000000E+00   0.00000000000000E+00   0.00000000000000E+00   0.00000000000000E+00
     -2.29805923674260E-17  -1.69948857986073E-15  -1.72246917222816E-15  -1.90833504207187E-15
      3.00000000000000E-01
      2.40000000000000E-01   2.40000000000000E-01   0.00000000000000E+00   0.00000000000000E+00   7.12448365172552E-15
      3.40099555878311E-19   7.12482375128140E-15   2.98647933055189E-15   0.00000000000000E+00   0.00000000000000E+00
      0.00000000000000E+00   0.00000000000000E+00  -1.86883957612768E-18  -4.93539819177601E-15  -4.93726703135214E-15
     -1.07739764754618E-15   0.00000000000000E+00   0.00000000000000E+00   0.00000000000000E+00   0.00000000000000E+00
     -2.29806739050949E-17  -2.16457604602418E-15  -2.18755671992927E-15  -1.90908168300572E-15
      4.00000000000000E-01
      3.20000000000000E-01   3.20000000000000E-01   0.00000000000000E+00   0.00000000000000E+00   8.42926613738535E-15
      5.92919923540032E-19   8.42985905730889E-15   3.05682648722385E-15   0.00000000000000E+00   0.00000000000000E+00
      0.00000000000000E+00   0.00000000000000E+00  -2.23964429279103E-18  -5.83048865951099E-15  -5.83272830380378E-15
     -1.14699823251452E-15   0.00000000000000E+00   0.00000000000000E+00   0.00000000000000E+00   0.00000000000000E+00
     -2.29806983314465E-17  -2.57415005517365E-15  -2.59713075350510E-15  -1.90982825470934E-15
      5.00000000000000E-01
      4.00000000000000E-01   4.00000000000000E-01   0.00000000000000E+00   0.00000000000000E+00   9.93553135369140E-15
      2.15930729398869E-19   9.93574728442079E-15   3.12517144537696E-15   0.00000000000000E+00   0.00000000000000E+00
      0.00000000000000E+00   0.00000000000000E+00  -9.95841537427801E-19  -6.96380203124835E-15  -6.96479787278578E-15
     -1.21459675617824E-15   0.00000000000000E+00   0.00000000000000E+00   0.00000000000000E+00   0.00000000000000E+00
     -2.29807233121709E-17  -2.94796868832289E-15  -2.97094941163506E-15  -1.91057468919872E-15
      6.00000000000000E-01
      4.80000000000000E-01   4.80000000000000E-01   0.00000000000000E+00   0.00000000000000E+00   1.11757187163959E-14
     -2.10751992231757E-18   1.11736111964736E-14   3.19165612261495E-15   0.00000000000000E+00   0.00000000000000E+00
      0.00000000000000E+00   0.00000000000000E+00  -1.81710490770598E-18  -7.85347019901345E-15  -7.85528730392115E-15
     -1.28033522461868E-15   0.00000000000000E+00   0.00000000000000E+00   0.00000000000000E+00   0.00000000000000E+00
     -2.29807483072666E-17  -3.29534314424515E-15  -3.31832389255242E-15  -1.91132089799628E-15
      7.00000000000000E-01
      5.60000000000000E-01   5.60000000000000E-01   0.00000000000000E+00   0.00000000000000E+00   1.21656499950439E-14
     -8.85178909018156E-19   1.21647648161349E-14   3.25633968588098E-15   0.00000000000000E+00   0.00000000000000E+00
      0.00000000000000E+00   0.00000000000000E+00  -4.78708095591498E-20  -8.51452290902033E-15  -8.51457077982989E-15
     -1.34427288947832E-15   0.00000000000000E+00   0.00000000000000E+00   0.00000000000000E+00   0.00000000000000E+00
     -2.29807732993008E-17  -3.62721326300572E-15  -3.65019403630502E-15  -1.91206679640266E-15
      8.00000000000000E-01
      6.40000000000000E-01   6.40000000000000E-01   0.00000000000000E+00   0.00000000000000E+00   1.30966832288422E-14
     -1.11108510259031E-18   1.30955721437397E-14   3.31920397587198E-15   0.00000000000000E+00   0.00000000000000E+00
      0.00000000000000E+00   0.00000000000000E+00  -1.89482007848398E-18  -9.12979618251684E-15  -9.13169100259532E-15
     -1.40639166477423E-15   0.00000000000000E+00   0.00000000000000E+00   0.00000000000000E+00   0.00000000000000E+00
     -2.29807982848047E-17  -3.94090034285952E-15  -3.96388114114432E-15  -1.91281231109775E-15
      9.00000000000000E-01
      7.20000000000000E-01   7.20000000000000E-01   0.00000000000000E+00   0.00000000000000E+00   1.40307370343590E-14
      1.33101689672290E-19   1.40308701360487E-14   3.38016388548943E-15   0.00000000000000E+00   0.00000000000000E+00
      0.00000000000000E+00   0.00000000000000E+00  -2.20009482900491E-18  -9.76485964834139E-15  -9.76705974317039E-15
     -1.46660650662799E-15   0.00000000000000E+00   0.00000000000000E+00   0.00000000000000E+00   0.00000000000000E+00
     -2.29808232613078E-17  -4.24082956961697E-15  -4.26381039287828E-15  -1.91355737886145E-15
      1.00000000000000E+00
      8.00000000000000E-01   8.00000000000000E-01   0.00000000000000E+00   0.00000000000000E+00   1.49662466951069E-14
      2.00130155332940E-19   1.49664468252622E-14   3.43910410980530E-15   0.00000000000000E+00   0.00000000000000E+00
      0.00000000000000E+00   0.00000000000000E+00  -1.47442982072619E-18  -1.04164799242252E-14  -1.04179543540459E-14
     -1.52480217150844E-15   0.00000000000000E+00   0.00000000000000E+00   0.00000000000000E+00   0.00000000000000E+00
     -2.29808482264837E-17  -4.52551162298985E-15  -4.54849247121634E-15  -1.91430193829686E-15
      0.00000000000000E+00
      8.00000000000000E-01   8.00000000000000E-01   0.00000000000000E+00   0.00000000000000E+00   1.49662972165069E-14
     -3.73688672228887E-19   1.49659235278347E-14   3.43910410980530E-15   0.00000000000000E+00   0.00000000000000E+00
      0.00000000000000E+00   0.00000000000000E+00  -1.52495122082419E-18  -1.04164739900444E-14  -1.04179989412653E-14
     -1.52480217150844E-15   0.00000000000000E+00   0.00000000000000E+00   0.00000000000000E+00   0.00000000000000E+00
     -2.29808482264838E-17  -4.52494373834299E-15  -4.54792458656948E-15  -1.91430193829686E-15
      1.00000000000000E-02
      8.00000000000000E-01   8.00000000000000E-01   0.00000000000000E+00   0.00000000000000E+00   1.65122014791708E-14
     -1.41981263312033E-18   1.65107816665376E-14   3.44373248091404E-15   0.00000000000000E+00   0.00000000000000E+00
      0.00000000000000E+00   0.00000000000000E+00  -1.52493316262162E-18  -1.04106715280451E-14  -1.04121964612077E-14
     -1.52478814133431E-15  -5.00000000000000E-01  -5.00000000000000E-01   0.00000000000000E+00   0.00000000000000E+00
     -2.29810088780774E-17  -6.07560419645193E-15  -6.09858520533001E-15  -1.91894433957974E-15
      2.00000000000000E-02
      8.00000000000000E-01   8.00000000000000E-01   0.00000000000000E+00   0.00000000000000E+00   1.77937499603743E-14
      2.34048971974639E-18   1.77960904500940E-14   3.44829545187586E-15   0.00000000000000E+00   0.00000000000000E+00
      0.00000000000000E+00   0.00000000000000E+00  -6.14280497009267E-19  -1.04066346597499E-14  -1.04072489402469E-14
     -1.52472492394990E-15  -1.00000000000000E+00  -1.00000000000000E+00   0.00000000000000E+00   0.00000000000000E+00
     -2.29811594220542E-17  -7.36586035042507E-15  -7.38884150984713E-15  -1.92357052792595E-15
      3.00000000000000E-02
      8.00000000000000E-01   8.00000000000000E-01   0.00000000000000E+00   0.00000000000000E+00   1.89000515618804E-14
      4.87624277692154E-19   1.89005391861581E-14   3.45268530123422E-15   0.00000000000000E+00   0.00000000000000E+00
      0.00000000000000E+00   0.00000000000000E+00  -1.72271938202050E-18  -1.04042054129667E-14  -1.04059281323487E-14
     -1.52449242569737E-15  -1.50000000000000E+00  -1.50000000000000E+00   0.00000000000000E+00   0.00000000000000E+00
     -2.29813148780817E-17  -8.47162973893137E-15  -8.49461105380945E-15  -1.92819287553685E-15
      4.00000000000000E-02
      8.00000000000000E-01   8.00000000000000E-01   0.00000000000000E+00   0.00000000000000E+00   1.98359263158629E-14
      4.88708789883186E-19   1.98364150246528E-14   3.45664603338708E-15   0.00000000000000E+00   0.00000000000000E+00
      0.00000000000000E+00   0.00000000000000E+00  -8.97990113875612E-21  -1.04037229605965E-14  -1.04037319404976E-14
     -1.52379909829736E-15  -2.00000000000000E+00  -2.00000000000000E+00   0.00000000000000E+00   0.00000000000000E+00
     -2.29814715609579E-17  -9.40970161259419E-15  -9.43268308415515E-15  -1.93284693508971E-15
      5.00000000000000E-02
      8.00000000000000E-01   8.00000000000000E-01   0.00000000000000E+00   0.00000000000000E+00   2.05638981808676E-14
      1.53912088712368E-18   2.05654373017547E-14   3.45974812219667E-15   0.00000000000000E+00   0.00000000000000E+00
      0.00000000000000E+00   0.00000000000000E+00   9.43713005037369E-19  -1.04060221657658E-14  -1.04050784527608E-14
     -1.52214537932663E-15  -2.50000000000000E+00  -2.50000000000000E+00   0.00000000000000E+00   0.00000000000000E+00
     -2.29816318291258E-17  -1.01373772171648E-14  -1.01603588489940E-14  -1.93760274287004E-15
      6.00000000000000E-02
      8.00000000000000E-01   8.00000000000000E-01   0.00000000000000E+00   0.00000000000000E+00   2.11262852686643E-14
      1.85413900239263E-18   2.11281394076667E-14   3.46141552215330E-15   0.00000000000000E+00   0.00000000000000E+00
      0.00000000000000E+00   0.00000000000000E+00  -1.17716041344521E-18  -1.04124971395681E-14  -1.04136742999816E-14
     -1.51890240908389E-15  -3.00000000000000E+00  -3.00000000000000E+00   0.00000000000000E+00   0.00000000000000E+00
     -2.29817974705060E-17  -1.06914833102146E-14  -1.07144651076851E-14  -1.94251311306941E-15
      7.00000000000000E-02
      8.00000000000000E-01   8.00000000000000E-01   0.00000000000000E+00   0.00000000000000E+00   2.15973622029603E-14
      2.31051193237320E-18   2.15996727148926E-14   3.46123663907234E-15   0.00000000000000E+00   0.00000000000000E+00
      0.00000000000000E+00   0.00000000000000E+00  -1.25584541250353E-18  -1.04249825407496E-14  -1.04262383861621E-14
     -1.51362542529217E-15  -3.50000000000000E+00  -3.50000000000000E+00   0.00000000000000E+00   0.00000000000000E+00
     -2.29819696172436E-17  -1.11504523591134E-14  -1.11734343287306E-14  -1.94761121378017E-15
      8.00000000000000E-02
      8.00000000000000E-01   8.00000000000000E-01   0.00000000000000E+00   0.00000000000000E+00   2.19674582473547E-14
      3.75387975149472E-18   2.19712121271062E-14   3.45929632559690E-15   0.00000000000000E+00   0.00000000000000E+00
      0.00000000000000E+00   0.00000000000000E+00  -3.04834972264842E-18  -1.04453078930034E-14  -1.04483562427260E-14
     -1.50637388126834E-15  -4.00000000000000E+00  -4.00000000000000E+00   0.00000000000000E+00   0.00000000000000E+00
     -2.29821491440167E-17  -1.14998737352362E-14  -1.15228558843802E-14  -1.95292244432855E-15
      9.00000000000000E-02
      8.00000000000000E-01   8.00000000000000E-01   0.00000000000000E+00   0.00000000000000E+00   2.22500797266755E-14
      1.39197410405609E-17   2.22639994677161E-14   3.45603164063969E-15   0.00000000000000E+00   0.00000000000000E+00
      0.00000000000000E+00   0.00000000000000E+00   1.18496858595661E-18  -1.04732473284952E-14  -1.04720623599092E-14
     -1.49756639544078E-15  -4.50000000000000E+00  -4.50000000000000E+00   0.00000000000000E+00   0.00000000000000E+00
     -2.29823366942244E-17  -1.17689547711126E-14  -1.17919371078068E-14  -1.95846524519892E-15
      1.00000000000000E-01
      8.00000000000000E-01   8.00000000000000E-01   0.00000000000000E+00   0.00000000000000E+00   2.24703164882637E-14
      1.53571865048672E-19   2.24704700601288E-14   3.45186353132900E-15   0.00000000000000E+00   0.00000000000000E+00
      0.00000000000000E+00   0.00000000000000E+00   2.03323183990548E-19  -1.05030557913562E-14  -1.05028524681722E-14
     -1.48761318831970E-15  -5.00000000000000E+00  -5.00000000000000E+00   0.00000000000000E+00   0.00000000000000E+00
     -2.29825326533076E-17  -1.19446350593032E-14  -1.19676175919565E-14  -1.96425034300930E-15
      1.10000000000000E-01
      8.00000000000000E-01   8.00000000000000E-01   0.00000000000000E+00   0.00000000000000E+00   2.26331129623579E-14
      8.11388588362232E-19   2.26339243509463E-14   3.44706588140568E-15   0.00000000000000E+00   0.00000000000000E+00
      0.00000000000000E+00   0.00000000000000E+00  -2.06969891248082E-18  -1.05253191769015E-14  -1.05273888758140E-14
     -1.47678350676200E-15  -5.50000000000000E+00  -5.50000000000000E+00   0.00000000000000E+00   0.00000000000000E+00
     -2.29827372025666E-17  -1.20835527379298E-14  -1.21065354751324E-14  -1.97028237464368E-15
      1.20000000000000E-01
      8.00000000000000E-01   8.00000000000000E-01   0.00000000000000E+00   0.00000000000000E+00   2.27491280121243E-14
     -1.73932547514049E-18   2.27473886866492E-14   3.44180036804427E-15   0.00000000000000E+00   0.00000000000000E+00
      0.00000000000000E+00   0.00000000000000E+00  -3.46128793055152E-18  -1.05369723725029E-14  -1.05404336604335E-14
     -1.46523791422011E-15  -6.00000000000000E+00  -6.00000000000000E+00   0.00000000000000E+00   0.00000000000000E+00
     -2.29829504052638E-17  -1.21839720758104E-14  -1.22069550262157E-14  -1.97656245382417E-15
      1.30000000000000E-01
      8.00000000000000E-01   8.00000000000000E-01   0.00000000000000E+00   0.00000000000000E+00   2.28327209125774E-14
     -4.38638274654974E-18   2.28283345298309E-14   3.43616515315708E-15   0.00000000000000E+00   0.00000000000000E+00
      0.00000000000000E+00   0.00000000000000E+00  -2.23176039081060E-18  -1.05410039078288E-14  -1.05432356682196E-14
     -1.45307524509829E-15  -6.50000000000000E+00  -6.50000000000000E+00   0.00000000000000E+00   0.00000000000000E+00
     -2.29831722650394E-17  -1.22621156893462E-14  -1.22850988616112E-14  -1.98308990805879E-15
      1.40000000000000E-01
      8.00000000000000E-01   8.00000000000000E-01   0.00000000000000E+00   0.00000000000000E+00   2.28968213405975E-14
     -2.81585525610934E-18   2.28940054853414E-14   3.43022386987358E-15   0.00000000000000E+00   0.00000000000000E+00
      0.00000000000000E+00   0.00000000000000E+00   7.06661992809208E-20  -1.05405527424089E-14  -1.05404820762096E-14
     -1.44036067938792E-15  -7.00000000000000E+00  -7.00000000000000E+00   0.00000000000000E+00   0.00000000000000E+00
     -2.29834027566021E-17  -1.23305400063752E-14  -1.23535234091319E-14  -1.98986319048565E-15
      1.50000000000000E-01
      8.00000000000000E-01   8.00000000000000E-01   0.00000000000000E+00   0.00000000000000E+00   2.29505176181959E-14
     -6.46697766767503E-18   2.29440506405282E-14   3.42402054174783E-15   0.00000000000000E+00   0.00000000000000E+00
      0.00000000000000E+00   0.00000000000000E+00   5.59546715815419E-19  -1.05373733239602E-14  -1.05368137772443E-14
     -1.42714020568949E-15  -7.50000000000000E+00  -7.50000000000000E+00   0.00000000000000E+00   0.00000000000000E+00
     -2.29836418410930E-17  -1.23842532214427E-14  -1.24072368632838E-14  -1.99688033605835E-15
      1.60000000000000E-01
      8.00000000000000E-01   8.00000000000000E-01   0.00000000000000E+00   0.00000000000000E+00   2.29980303085203E-14
     -3.42620312882518E-18   2.29946041053915E-14   3.41758734156288E-15   0.00000000000000E+00   0.00000000000000E+00
      0.00000000000000E+00   0.00000000000000E+00  -1.73570810354680E-18  -1.05323784092968E-14  -1.05341141174003E-14
     -1.41344814427876E-15  -8.00000000000000E+00  -8.00000000000000E+00   0.00000000000000E+00   0.00000000000000E+00
     -2.29838894740226E-17  -1.24375060985171E-14  -1.24604899879911E-14  -2.00413919728413E-15
      1.70000000000000E-01
      8.00000000000000E-01   8.00000000000000E-01   0.00000000000000E+00   0.00000000000000E+00   2.30367298923836E-14
     -1.74199077094935E-18   2.30349879016126E-14   3.41094888957215E-15   0.00000000000000E+00   0.00000000000000E+00
      0.00000000000000E+00   0.00000000000000E+00  -2.23390140863310E-18  -1.05260184570847E-14  -1.05282523584933E-14
     -1.39931131645563E-15  -8.50000000000000E+00  -8.50000000000000E+00   0.00000000000000E+00   0.00000000000000E+00
     -2.29841456096218E-17  -1.24837513975096E-14  -1.25067355431192E-14  -2.01163757311652E-15
      1.80000000000000E-01
      8.00000000000000E-01   8.00000000000000E-01   0.00000000000000E+00   0.00000000000000E+00   2.30688964014643E-14
     -3.37470014734198E-18   2.30655217013170E-14   3.40412480870576E-15   0.00000000000000E+00   0.00000000000000E+00
      0.00000000000000E+00   0.00000000000000E+00  -1.79043308049632E-18  -1.05185185120750E-14  -1.05203089451555E-14
     -1.38475152671052E-15  -9.00000000000000E+00  -9.00000000000000E+00   0.00000000000000E+00   0.00000000000000E+00
     -2.29844102033060E-17  -1.25222283459582E-14  -1.25452127561615E-14  -2.01937328199525E-15
      1.90000000000000E-01
      8.00000000000000E-01   8.00000000000000E-01   0.00000000000000E+00   0.00000000000000E+00   2.30961169234048E-14
     -1.57178004983708E-18   2.30945451433550E-14   3.39713132685195E-15   0.00000000000000E+00   0.00000000000000E+00
      0.00000000000000E+00   0.00000000000000E+00  -9.02751606483475E-19  -1.05100169427642E-14  -1.05109196943706E-14
     -1.36978712473788E-15  -9.50000000000000E+00  -9.50000000000000E+00   0.00000000000000E+00   0.00000000000000E+00
     -2.29846832130394E-17  -1.25606407657713E-14  -1.25836254489843E-14  -2.02734420211407E-15
      2.00000000000000E-01
      8.00000000000000E-01   8.00000000000000E-01   0.00000000000000E+00   0.00000000000000E+00   2.31208533898660E-14
      6.31874373887450E-18   2.31271721336049E-14   3.38998231500531E-15   0.00000000000000E+00   0.00000000000000E+00
      0.00000000000000E+00   0.00000000000000E+00  -1.14115056429112E-18  -1.05005426365374E-14  -1.05016837871017E-14
     -1.35443402425645E-15  -1.00000000000000E+01  -1.00000000000000E+01   0.00000000000000E+00   0.00000000000000E+00
     -2.29849645999922E-17  -1.26025033819032E-14  -1.26254883465032E-14  -2.03554829074885E-15
      2.10000000000000E-01
      8.00000000000000E-01   8.00000000000000E-01   0.00000000000000E+00   0.00000000000000E+00   2.31424635734953E-14
     -1.71148767909263E-17   2.31253486967044E-14   3.38268997714258E-15   0.00000000000000E+00   0.00000000000000E+00
      0.00000000000000E+00   0.00000000000000E+00  -1.06848577111172E-18  -1.04899516432629E-14  -1.04910201290340E-14
     -1.33870638693917E-15  -1.05000000000000E+01  -1.05000000000000E+01   0.00000000000000E+00   0.00000000000000E+00
     -2.29852543287475E-17  -1.26113433133417E-14  -1.26343285676705E-14  -2.04398359020341E-15
      2.20000000000000E-01
      8.00000000000000E-01   8.00000000000000E-01   0.00000000000000E+00   0.00000000000000E+00   2.31629158146407E-14
      2.84946141356810E-19   2.31632007607820E-14   3.37526532549899E-15   0.00000000000000E+00   0.00000000000000E+00
      0.00000000000000E+00   0.00000000000000E+00  -1.89318033152204E-18  -1.04776154671114E-14  -1.04795086474429E-14
     -1.32261709956122E-15  -1.10000000000000E+01  -1.10000000000000E+01   0.00000000000000E+00   0.00000000000000E+00
     -2.29855523672386E-17  -1.26607065609719E-14  -1.26836921133392E-14  -2.05264822593778E-15
      2.30000000000000E-01
      8.00000000000000E-01   8.00000000000000E-01   0.00000000000000E+00   0.00000000000000E+00   2.31815767822818E-14
     -8.89122290625134E-20   2.31814878700528E-14   3.36771852752506E-15   0.00000000000000E+00   0.00000000000000E+00
      0.00000000000000E+00   0.00000000000000E+00  -2.37552851490352E-18  -1.04612182473110E-14  -1.04635937758259E-14
     -1.30617812658467E-15  -1.15000000000000E+01  -1.15000000000000E+01   0.00000000000000E+00   0.00000000000000E+00
     -2.29858586865555E-17  -1.26949082355404E-14  -1.27178940942269E-14  -2.06154040094039E-15
      2.40000000000000E-01
      8.00000000000000E-01   8.00000000000000E-01   0.00000000000000E+00   0.00000000000000E+00   2.31965839257423E-14
      1.03187598716014E-17   2.32069026856139E-14   3.36005917927816E-15   0.00000000000000E+00   0.00000000000000E+00
      0.00000000000000E+00   0.00000000000000E+00  -2.96091731496299E-19  -1.04330915959819E-14  -1.04333876877134E-14
     -1.28940079023384E-15  -1.20000000000000E+01  -1.20000000000000E+01   0.00000000000000E+00   0.00000000000000E+00
     -2.29861732607277E-17  -1.27505288246398E-14  -1.27735149979006E-14  -2.07065838904432E-15
      2.50000000000000E-01
      8.00000000000000E-01   8.00000000000000E-01   0.00000000000000E+00   0.00000000000000E+00   2.32140094211737E-14
      1.05595866249083E-17   2.32245690077986E-14   3.35229653892144E-15   0.00000000000000E+00   0.00000000000000E+00
      0.00000000000000E+00   0.00000000000000E+00  -1.50811482298321E-18  -1.03685096392177E-14  -1.03700177540407E-14
     -1.27229601015697E-15  -1.25000000000000E+01  -1.25000000000000E+01   0.00000000000000E+00   0.00000000000000E+00
     -2.29864960665068E-17  -1.28315647576914E-14  -1.28545512537579E-14  -2.08000052876447E-15
      2.60000000000000E-01
      8.00000000000000E-01   8.00000000000000E-01   0.00000000000000E+00   0.00000000000000E+00   2.32314914408315E-14
     -1.68856789131634E-17   2.32146057619183E-14   3.34443974107016E-15   0.00000000000000E+00   0.00000000000000E+00
      0.00000000000000E+00   0.00000000000000E+00  -3.51694337548178E-18  -1.01892137211371E-14  -1.01927306645126E-14
     -1.25487452262366E-15  -1.30000000000000E+01  -1.30000000000000E+01   0.00000000000000E+00   0.00000000000000E+00
     -2.29868270832015E-17  -1.29988882703224E-14  -1.30218750974056E-14  -2.08956521844649E-15
      2.70000000000000E-01
      8.00000000000000E-01   8.00000000000000E-01   0.00000000000000E+00   0.00000000000000E+00   2.32441079074083E-14
      3.49350698760746E-17   2.32790429772843E-14   3.33649800574961E-15   0.00000000000000E+00   0.00000000000000E+00
      0.00000000000000E+00   0.00000000000000E+00  -1.35183766846600E-18  -9.65235784249717E-15  -9.65370968016564E-15
     -1.23714709271231E-15  -1.35000000000000E+01  -1.35000000000000E+01   0.00000000000000E+00   0.00000000000000E+00
     -2.29871662925793E-17  -1.36023461308262E-14  -1.36253332971187E-14  -2.09935091303730E-15
      2.80000000000000E-01
      8.00000000000000E-01   8.00000000000000E-01   0.00000000000000E+00   0.00000000000000E+00   2.32584536520415E-14
     -1.89485779610981E-17   2.32395050740804E-14   3.32848085272182E-15   0.00000000000000E+00   0.00000000000000E+00
      0.00000000000000E+00   0.00000000000000E+00  -1.64152825780102E-18  -8.02265395372016E-15  -8.02429548197796E-15
     -1.21912473017656E-15  -1.40000000000000E+01  -1.40000000000000E+01   0.00000000000000E+00   0.00000000000000E+00
     -2.29875136787978E-17  -1.51922220784238E-14  -1.52152095921026E-14  -2.10935612254526E-15
      2.90000000000000E-01
      8.00000000000000E-01   8.00000000000000E-01   0.00000000000000E+00   0.00000000000000E+00   2.32723821773139E-14
      1.30489004636293E-17   2.32854310777775E-14   3.32039833167797E-15   0.00000000000000E+00   0.00000000000000E+00
      0.00000000000000E+00   0.00000000000000E+00  -2.36348989347516E-18  -3.12990164637278E-15  -3.13226513626626E-15
     -1.20081891943834E-15  -1.45000000000000E+01  -1.45000000000000E+01   0.00000000000000E+00   0.00000000000000E+00
     -2.29878692284382E-17  -2.01301780722828E-14  -2.01531659415112E-14  -2.11957941223963E-15
      3.00000000000000E-01
      8.00000000000000E-01   8.00000000000000E-01   0.00000000000000E+00   0.00000000000000E+00   2.32826680958790E-14
     -3.04877463417014E-17   2.32521803495373E-14   3.31226128105538E-15   0.00000000000000E+00   0.00000000000000E+00
      0.00000000000000E+00   0.00000000000000E+00  -5.15169610450185E-19   1.12599925472943E-14   1.12594773776839E-14
     -1.18224187613822E-15  -1.50000000000000E+01  -1.50000000000000E+01   0.00000000000000E+00   0.00000000000000E+00
     -2.29882329305659E-17  -3.44886694942906E-14  -3.45116577272211E-14  -2.13001940491715E-15
      3.10000000000000E-01
      8.00000000000000E-01   8.00000000000000E-01   0.00000000000000E+00   0.00000000000000E+00   2.32934180370398E-14
     -1.71503406270246E-17   2.32762676964128E-14   3.30408163401604E-15   0.00000000000000E+00   0.00000000000000E+00
      0.00000000000000E+00   0.00000000000000E+00  -5.74109749492114E-19   5.25472744989560E-14   5.25467003892065E-14
     -1.16340684751105E-15  -1.55000000000000E+01  -1.55000000000000E+01   0.00000000000000E+00   0.00000000000000E+00
     -2.29886047769531E-17  -7.57999794808422E-14  -7.58229680856192E-14  -2.14067478650499E-15
      3.20000000000000E-01
      8.00000000000000E-01   8.00000000000000E-01   0.00000000000000E+00   0.00000000000000E+00   2.33042411266562E-14
     -8.66238222867458E-18   2.32955787444276E-14   3.29587280187278E-15   0.00000000000000E+00   0.00000000000000E+00
      0.00000000000000E+00   0.00000000000000E+00  -2.80341663040908E-18   1.67837309859394E-13   1.67834506442764E-13
     -1.14432848326097E-15  -1.60000000000000E+01  -1.60000000000000E+01   0.00000000000000E+00   0.00000000000000E+00
     -2.29889847625180E-17  -1.91107096202427E-13  -1.91130085187190E-13  -2.15154431861180E-15
      3.30000000000000E-01
      8.00000000000000E-01   8.00000000000000E-01   0.00000000000000E+00   0.00000000000000E+00   2.33076353902792E-14
     -8.73208635547396E-18   2.32989033039237E-14   3.28765018794265E-15   0.00000000000000E+00   0.00000000000000E+00
      0.00000000000000E+00   0.00000000000000E+00  -9.51070792010595E-19   4.80581513236647E-13   4.80580562165855E-13
     -1.12502332081447E-15  -1.65000000000000E+01  -1.65000000000000E+01   0.00000000000000E+00   0.00000000000000E+00
     -2.29893728863480E-17  -5.03856476096891E-13  -5.03879465469778E-13  -2.16262686712819E-15
      3.40000000000000E-01
      8.00000000000000E-01   8.00000000000000E-01   0.00000000000000E+00   0.00000000000000E+00   2.33071398053831E-14
      1.36309539047006E-18   2.33085029007735E-14   3.27943192715623E-15   0.00000000000000E+00   0.00000000000000E+00
      0.00000000000000E+00   0.00000000000000E+00  -1.12086634325954E-18   1.30333868458927E-12   1.30333756372293E-12
     -1.10551045920090E-15  -1.70000000000000E+01  -1.70000000000000E+01   0.00000000000000E+00   0.00000000000000E+00
     -2.29897691540595E-17  -1.32662307685456E-12  -1.32664606662371E-12  -2.17392146795532E-15
      3.50000000000000E-01
      8.00000000000000E-01   8.00000000000000E-01   0.00000000000000E+00   0.00000000000000E+00   2.32937033031154E-14
      6.56194400213971E-18   2.33002652471175E-14   3.27124002254827E-15   0.00000000000000E+00   0.00000000000000E+00
      0.00000000000000E+00   0.00000000000000E+00   2.89759496070323E-19   3.39880623453953E-12   3.39880652429903E-12
     -1.08581254703660E-15  -1.75000000000000E+01  -1.75000000000000E+01   0.00000000000000E+00   0.00000000000000E+00
     -2.29901735831016E-17  -3.42208379937257E-12  -3.42210678954616E-12  -2.18542747551168E-15
      3.60000000000000E-01
      8.00000000000000E-01   8.00000000000000E-01   0.00000000000000E+00   0.00000000000000E+00   2.32595195025427E-14
      8.23427909015748E-19   2.32603429304517E-14   3.26310217612708E-15   0.00000000000000E+00   0.00000000000000E+00