DF-ISE text

Info {
  version   = 1.0
  type      = xyplot
  datasets  = [
    "time"
    "Ntop OuterVoltage" "Ntop InnerVoltage" "Ntop QuasiFermiPotential" "Ntop DisplacementCurrent" "Ntop eCurrent"
    "Ntop hCurrent" "Ntop TotalCurrent" "Ntop Charge" "Ptop OuterVoltage" "Ptop InnerVoltage"
    "Ptop QuasiFermiPotential" "Ptop DisplacementCurrent" "Ptop eCurrent" "Ptop hCurrent" "Ptop TotalCurrent"
    "Ptop Charge" "Pbot OuterVoltage" "Pbot InnerVoltage" "Pbot QuasiFermiPotential" "Pbot DisplacementCurrent"
    "Pbot eCurrent" "Pbot hCurrent" "Pbot TotalCurrent" "Pbot Charge" ]
  functions = [
    Time
    OuterVoltage InnerVoltage QuasiFermiPotential DisplacementCurrent eCurrent
    hCurrent TotalCurrent Charge OuterVoltage InnerVoltage
    QuasiFermiPotential DisplacementCurrent eCurrent hCurrent TotalCurrent
    Charge OuterVoltage InnerVoltage QuasiFermiPotential DisplacementCurrent
    eCurrent hCurrent TotalCurrent Charge ]
}

Data {
      0.00000000000000E+00
      0.00000000000000E+00   0.00000000000000E+00   0.00000000000000E+00   0.00000000000000E+00   5.47245736879224E-20
     -2.62260372893530E-17  -2.61713127156651E-17   2.76043908183869E-15   0.00000000000000E+00   0.00000000000000E+00
      0.00000000000000E+00   0.00000000000000E+00  -5.47245737153923E-20   3.92607228462301E-19   3.37882654746909E-19
     -8.53597786585168E-16   0.00000000000000E+00   0.00000000000000E+00   0.00000000000000E+00   0.00000000000000E+00
      2.58094047177879E-29   2.58334300608923E-17   2.58334300609181E-17  -1.90684129525353E-15
      0.00000000000000E+00
      0.00000000000000E+00   0.00000000000000E+00   0.00000000000000E+00   0.00000000000000E+00  -1.07080141536937E-19
      6.45317565389679E-19   5.38237423852743E-19   2.76043908183726E-15   0.00000000000000E+00   0.00000000000000E+00
      0.00000000000000E+00   0.00000000000000E+00   1.07080141548577E-19  -2.43160854988657E-21   1.04648532998690E-19
     -8.53597786583731E-16   0.00000000000000E+00   0.00000000000000E+00   0.00000000000000E+00   0.00000000000000E+00
     -8.44667842534971E-30  -6.42885956842985E-19  -6.42885956851432E-19  -1.90684129525353E-15
      1.00000000000000E-01
      8.00000000000000E-02   8.00000000000000E-02   0.00000000000000E+00   0.00000000000000E+00   1.62313620252671E-15
      4.79733937134899E-19   1.62361593646385E-15   2.83871844013159E-15   0.00000000000000E+00   0.00000000000000E+00
      0.00000000000000E+00   0.00000000000000E+00  -1.96301596652940E-18  -4.74016103631009E-16  -4.75979119597539E-16
     -9.31130119822947E-16   0.00000000000000E+00   0.00000000000000E+00   0.00000000000000E+00   0.00000000000000E+00
     -2.28697587606727E-17  -1.12476705810564E-15  -1.14763681686631E-15  -1.90758832030864E-15
      2.00000000000000E-01
      1.60000000000000E-01   1.60000000000000E-01   0.00000000000000E+00   0.00000000000000E+00   2.35121191162245E-15
     -3.51704744186750E-19   2.35086020687827E-15   2.91389419387891E-15   0.00000000000000E+00   0.00000000000000E+00
      0.00000000000000E+00   0.00000000000000E+00  -2.10087801037006E-18  -6.26108005510648E-16  -6.28208883521018E-16
     -1.00555915180703E-15   0.00000000000000E+00   0.00000000000000E+00   0.00000000000000E+00   0.00000000000000E+00
     -2.29805923674260E-17  -1.69967073098982E-15  -1.72265132335725E-15  -1.90833504207188E-15
      3.00000000000000E-01
      2.40000000000000E-01   2.40000000000000E-01   0.00000000000000E+00   0.00000000000000E+00   2.92409225707233E-15
      6.04497315147979E-19   2.92469675438748E-15   2.98647933055646E-15   0.00000000000000E+00   0.00000000000000E+00
      0.00000000000000E+00   0.00000000000000E+00  -7.45669713210485E-19  -7.36126482098640E-16  -7.36872151811851E-16
     -1.07739764755074E-15   0.00000000000000E+00   0.00000000000000E+00   0.00000000000000E+00   0.00000000000000E+00
     -2.29806739050949E-17  -2.16484392867054E-15  -2.18782460257564E-15  -1.90908168300573E-15
      4.00000000000000E-01
      3.20000000000000E-01   3.20000000000000E-01   0.00000000000000E+00   0.00000000000000E+00   3.47248165977384E-15
      3.84015185531262E-19   3.47286567495937E-15   3.05682648722910E-15   0.00000000000000E+00   0.00000000000000E+00
      0.00000000000000E+00   0.00000000000000E+00  -1.45582004528388E-18  -8.74482685417389E-16  -8.75938505462673E-16
     -1.14699823251976E-15   0.00000000000000E+00   0.00000000000000E+00   0.00000000000000E+00   0.00000000000000E+00
     -2.29806983314467E-17  -2.57394647116525E-15  -2.59692716949669E-15  -1.90982825470935E-15
      5.00000000000000E-01
      4.00000000000000E-01   4.00000000000000E-01   0.00000000000000E+00   0.00000000000000E+00   4.00922255273015E-15
     -4.04189285679571E-20   4.00918213380159E-15   3.12517144538310E-15   0.00000000000000E+00   0.00000000000000E+00
      0.00000000000000E+00   0.00000000000000E+00  -4.16341070477683E-18  -1.03432647847831E-15  -1.03848988918309E-15
     -1.21459675618437E-15   0.00000000000000E+00   0.00000000000000E+00   0.00000000000000E+00   0.00000000000000E+00
     -2.29807233121710E-17  -2.94771152130633E-15  -2.97069224461850E-15  -1.91057468919873E-15
      6.00000000000000E-01
      4.80000000000000E-01   4.80000000000000E-01   0.00000000000000E+00   0.00000000000000E+00   4.48822006336822E-15
     -1.64452734329941E-18   4.48657553602492E-15   3.19165612262175E-15   0.00000000000000E+00   0.00000000000000E+00
      0.00000000000000E+00   0.00000000000000E+00  -7.55574313601667E-19  -1.16702460898303E-15  -1.16778018329663E-15
     -1.28033522462546E-15   0.00000000000000E+00   0.00000000000000E+00   0.00000000000000E+00   0.00000000000000E+00
     -2.29807483072665E-17  -3.29581460442103E-15  -3.31879535272830E-15  -1.91132089799629E-15
      7.00000000000000E-01
      5.60000000000000E-01   5.60000000000000E-01   0.00000000000000E+00   0.00000000000000E+00   4.92637886509405E-15
     -1.77577177106641E-18   4.92460309332299E-15   3.25633968588822E-15   0.00000000000000E+00   0.00000000000000E+00
      0.00000000000000E+00   0.00000000000000E+00  -2.49066785208721E-19  -1.27504930975942E-15  -1.27529837654463E-15
     -1.34427288948555E-15   0.00000000000000E+00   0.00000000000000E+00   0.00000000000000E+00   0.00000000000000E+00
     -2.29807732993008E-17  -3.62632394347905E-15  -3.64930471677835E-15  -1.91206679640267E-15
      8.00000000000000E-01
      6.40000000000000E-01   6.40000000000000E-01   0.00000000000000E+00   0.00000000000000E+00   5.34519702981735E-15
     -1.50594987907842E-18   5.34369107993827E-15   3.31920397587961E-15   0.00000000000000E+00   0.00000000000000E+00
      0.00000000000000E+00   0.00000000000000E+00  -2.20308888063709E-18  -1.37800331201865E-15  -1.38020640089929E-15
     -1.40639166478186E-15   0.00000000000000E+00   0.00000000000000E+00   0.00000000000000E+00   0.00000000000000E+00
     -2.29807982848043E-17  -3.94050388075417E-15  -3.96348467903898E-15  -1.91281231109776E-15
      9.00000000000000E-01
      7.20000000000000E-01   7.20000000000000E-01   0.00000000000000E+00   0.00000000000000E+00   5.74804639843776E-15
      2.50201973190446E-19   5.74829660041095E-15   3.38016388549749E-15   0.00000000000000E+00   0.00000000000000E+00
      0.00000000000000E+00   0.00000000000000E+00  -7.97268140281740E-19  -1.48357106746462E-15  -1.48436833560490E-15
     -1.46660650663602E-15   0.00000000000000E+00   0.00000000000000E+00   0.00000000000000E+00   0.00000000000000E+00
     -2.29808232613078E-17  -4.24094744154476E-15  -4.26392826480607E-15  -1.91355737886146E-15
      1.00000000000000E+00
      8.00000000000000E-01   8.00000000000000E-01   0.00000000000000E+00   0.00000000000000E+00   6.14597425532972E-15
     -7.63849966928200E-20   6.14589787033303E-15   3.43910410981374E-15   0.00000000000000E+00   0.00000000000000E+00
      0.00000000000000E+00   0.00000000000000E+00  -5.05488413831987E-18  -1.59262909867704E-15  -1.59768398281536E-15
     -1.52480217151686E-15   0.00000000000000E+00   0.00000000000000E+00   0.00000000000000E+00   0.00000000000000E+00
     -2.29808482264839E-17  -4.52523303929118E-15  -4.54821388751767E-15  -1.91430193829687E-15
      0.00000000000000E+00
      8.00000000000000E-01   8.00000000000000E-01   0.00000000000000E+00   0.00000000000000E+00   6.14402561156765E-15
      6.14181327366651E-19   6.14463979289502E-15   3.43910410981375E-15   0.00000000000000E+00   0.00000000000000E+00
      0.00000000000000E+00   0.00000000000000E+00  -3.10624037628252E-18  -1.59262320251496E-15  -1.59572944289124E-15
     -1.52480217151686E-15   0.00000000000000E+00   0.00000000000000E+00   0.00000000000000E+00   0.00000000000000E+00
     -2.29808482264838E-17  -4.52592950177730E-15  -4.54891035000378E-15  -1.91430193829687E-15
      1.00000000000000E-02
      8.00000000000000E-01   8.00000000000000E-01   0.00000000000000E+00   0.00000000000000E+00   7.68952793525370E-15
     -1.51850096225744E-18   7.68800943429145E-15   3.44373248092248E-15   0.00000000000000E+00   0.00000000000000E+00
      0.00000000000000E+00   0.00000000000000E+00  -2.70428333704553E-18  -1.58681642192645E-15  -1.58952070526349E-15
     -1.52478814134273E-15  -5.00000000000000E-01  -5.00000000000000E-01   0.00000000000000E+00   0.00000000000000E+00
     -2.29810088780775E-17  -6.07550772014987E-15  -6.09848872902795E-15  -1.91894433957975E-15
      2.00000000000000E-02
      8.00000000000000E-01   8.00000000000000E-01   0.00000000000000E+00   0.00000000000000E+00   8.97102317086178E-15
     -7.54469504155727E-19   8.97026870135762E-15   3.44829545188429E-15   0.00000000000000E+00   0.00000000000000E+00
      0.00000000000000E+00   0.00000000000000E+00  -1.74038504793270E-18  -1.58278330762873E-15  -1.58452369267666E-15
     -1.52472492395833E-15  -1.00000000000000E+00  -1.00000000000000E+00   0.00000000000000E+00   0.00000000000000E+00
     -2.29811594220541E-17  -7.36276384925890E-15  -7.38574500868095E-15  -1.92357052792596E-15
      3.00000000000000E-02
      8.00000000000000E-01   8.00000000000000E-01   0.00000000000000E+00   0.00000000000000E+00   1.00770056707778E-14
     -1.85366373353657E-19   1.00768203044045E-14   3.45268530124266E-15   0.00000000000000E+00   0.00000000000000E+00
      0.00000000000000E+00   0.00000000000000E+00  -2.52972223260138E-18  -1.58035447860286E-15  -1.58288420083546E-15
     -1.52449242570580E-15  -1.50000000000000E+00  -1.50000000000000E+00   0.00000000000000E+00   0.00000000000000E+00
     -2.29813148780816E-17  -8.47095478869092E-15  -8.49393610356900E-15  -1.92819287553686E-15
      4.00000000000000E-02
      8.00000000000000E-01   8.00000000000000E-01   0.00000000000000E+00   0.00000000000000E+00   1.10133522081629E-14
     -1.96214644050013E-19   1.10131559935188E-14   3.45664603339551E-15   0.00000000000000E+00   0.00000000000000E+00
      0.00000000000000E+00   0.00000000000000E+00  -1.28776582210663E-18  -1.57987097624310E-15  -1.58115874206521E-15
     -1.52379909830579E-15  -2.00000000000000E+00  -2.00000000000000E+00   0.00000000000000E+00   0.00000000000000E+00
     -2.29814715609581E-17  -9.40901577989263E-15  -9.43199725145359E-15  -1.93284693508973E-15
      5.00000000000000E-02
      8.00000000000000E-01   8.00000000000000E-01   0.00000000000000E+00   0.00000000000000E+00   1.17433757622147E-14
     -2.10258736718538E-18   1.17412731748476E-14   3.45974812220508E-15   0.00000000000000E+00   0.00000000000000E+00
      0.00000000000000E+00   0.00000000000000E+00  -2.38676116437880E-18  -1.58217060346818E-15  -1.58455736463255E-15
     -1.52214537933504E-15  -2.50000000000000E+00  -2.50000000000000E+00   0.00000000000000E+00   0.00000000000000E+00
     -2.29816318291256E-17  -1.01337341783859E-14  -1.01567158102150E-14  -1.93760274287004E-15
      6.00000000000000E-02
      8.00000000000000E-01   8.00000000000000E-01   0.00000000000000E+00   0.00000000000000E+00   1.23033445015104E-14
     -1.25312589264149E-18   1.23020913756178E-14   3.46141552216165E-15   0.00000000000000E+00   0.00000000000000E+00
      0.00000000000000E+00   0.00000000000000E+00  -2.08928447612508E-18  -1.58864411116781E-15  -1.59073339564394E-15
     -1.51890240909225E-15  -3.00000000000000E+00  -3.00000000000000E+00   0.00000000000000E+00   0.00000000000000E+00
     -2.29817974705058E-17  -1.06883761825033E-14  -1.07113579799739E-14  -1.94251311306941E-15
      7.00000000000000E-02
      8.00000000000000E-01   8.00000000000000E-01   0.00000000000000E+00   0.00000000000000E+00   1.27745024407638E-14
     -1.80414682870357E-18   1.27726982939351E-14   3.46123663908058E-15   0.00000000000000E+00   0.00000000000000E+00
      0.00000000000000E+00   0.00000000000000E+00  -2.24897167805266E-18  -1.60112914262148E-15  -1.60337811429953E-15
     -1.51362542530043E-15  -3.50000000000000E+00  -3.50000000000000E+00   0.00000000000000E+00   0.00000000000000E+00
     -2.29819696172434E-17  -1.11463382100184E-14  -1.11693201796356E-14  -1.94761121378017E-15
      8.00000000000000E-02
      8.00000000000000E-01   8.00000000000000E-01   0.00000000000000E+00   0.00000000000000E+00   1.31429389517704E-14
      3.19206344879290E-18   1.31461310152192E-14   3.45929632560504E-15   0.00000000000000E+00   0.00000000000000E+00
      0.00000000000000E+00   0.00000000000000E+00  -2.38193848248112E-18  -1.62145053144427E-15  -1.62383246992675E-15
     -1.50637388127648E-15  -4.00000000000000E+00  -4.00000000000000E+00   0.00000000000000E+00   0.00000000000000E+00
     -2.29821491440166E-17  -1.14993163961484E-14  -1.15222985452924E-14  -1.95292244432856E-15
      9.00000000000000E-02
      8.00000000000000E-01   8.00000000000000E-01   0.00000000000000E+00   0.00000000000000E+00   1.34294445126759E-14
      7.89717240112197E-18   1.34373416850770E-14   3.45603164064772E-15   0.00000000000000E+00   0.00000000000000E+00
      0.00000000000000E+00   0.00000000000000E+00  -2.03269621289978E-18  -1.64939360986257E-15  -1.65142630607547E-15
     -1.49756639544881E-15  -4.50000000000000E+00  -4.50000000000000E+00   0.00000000000000E+00   0.00000000000000E+00
     -2.29823366942244E-17  -1.17629330423074E-14  -1.17859153790016E-14  -1.95846524519891E-15
      1.00000000000000E-01
      8.00000000000000E-01   8.00000000000000E-01   0.00000000000000E+00   0.00000000000000E+00   1.36476498595968E-14
     -3.95556782153981E-19   1.36472543028147E-14   3.45186353133695E-15   0.00000000000000E+00   0.00000000000000E+00
      0.00000000000000E+00   0.00000000000000E+00  -9.82919975951511E-19  -1.67921096313871E-15  -1.68019388311466E-15
     -1.48761318832766E-15  -5.00000000000000E+00  -5.00000000000000E+00   0.00000000000000E+00   0.00000000000000E+00
     -2.29825326533074E-17  -1.19440778870467E-14  -1.19670604197000E-14  -1.96425034300930E-15
      1.10000000000000E-01
      8.00000000000000E-01   8.00000000000000E-01   0.00000000000000E+00   0.00000000000000E+00   1.38106223072978E-14
      1.19603017588491E-18   1.38118183374736E-14   3.44706588141356E-15   0.00000000000000E+00   0.00000000000000E+00
      0.00000000000000E+00   0.00000000000000E+00  -3.43190732783181E-18  -1.70146522149566E-15  -1.70489712882350E-15
     -1.47678350676989E-15  -5.50000000000000E+00  -5.50000000000000E+00   0.00000000000000E+00   0.00000000000000E+00
     -2.29827372025664E-17  -1.20839384714476E-14  -1.21069212086501E-14  -1.97028237464368E-15
      1.20000000000000E-01
      8.00000000000000E-01   8.00000000000000E-01   0.00000000000000E+00   0.00000000000000E+00   1.39223879462744E-14
     -4.26531835748578E-19   1.39219614144386E-14   3.44180036805210E-15   0.00000000000000E+00   0.00000000000000E+00
      0.00000000000000E+00   0.00000000000000E+00  -5.74075872233614E-19  -1.71311438868849E-15  -1.71368846456073E-15
     -1.46523791422794E-15  -6.00000000000000E+00  -6.00000000000000E+00   0.00000000000000E+00   0.00000000000000E+00
     -2.29829504052638E-17  -1.21852899994727E-14  -1.22082729498779E-14  -1.97656245382417E-15
      1.30000000000000E-01
      8.00000000000000E-01   8.00000000000000E-01   0.00000000000000E+00   0.00000000000000E+00   1.40100115102902E-14
     -2.30446927010882E-18   1.40077070410201E-14   3.43616515316485E-15   0.00000000000000E+00   0.00000000000000E+00
      0.00000000000000E+00   0.00000000000000E+00  -3.37520086906009E-18  -1.71715430185205E-15  -1.72052950272111E-15
     -1.45307524510606E-15  -6.50000000000000E+00  -6.50000000000000E+00   0.00000000000000E+00   0.00000000000000E+00
     -2.29831722650396E-17  -1.22641943660339E-14  -1.22871775382990E-14  -1.98308990805879E-15
      1.40000000000000E-01
      8.00000000000000E-01   8.00000000000000E-01   0.00000000000000E+00   0.00000000000000E+00   1.40723469415665E-14
      4.45574255157251E-18   1.40768026841180E-14   3.43022386988131E-15   0.00000000000000E+00   0.00000000000000E+00
      0.00000000000000E+00   0.00000000000000E+00   6.92234873612727E-19  -1.71669647673515E-15  -1.71600424186153E-15
     -1.44036067939565E-15  -7.00000000000000E+00  -7.00000000000000E+00   0.00000000000000E+00   0.00000000000000E+00
     -2.29834027566025E-17  -1.23378150394999E-14  -1.23607984422565E-14  -1.98986319048566E-15
      1.50000000000000E-01
      8.00000000000000E-01   8.00000000000000E-01   0.00000000000000E+00   0.00000000000000E+00   1.41280808742288E-14
     -2.81135547742834E-18   1.41252695187514E-14   3.42402054175553E-15   0.00000000000000E+00   0.00000000000000E+00
      0.00000000000000E+00   0.00000000000000E+00  -8.56525836422770E-19  -1.71351166283206E-15  -1.71436818866849E-15
     -1.42714020569717E-15  -7.50000000000000E+00  -7.50000000000000E+00   0.00000000000000E+00   0.00000000000000E+00
     -2.29836418410932E-17  -1.23879176882418E-14  -1.24109013300829E-14  -1.99688033605835E-15
      1.60000000000000E-01
      8.00000000000000E-01   8.00000000000000E-01   0.00000000000000E+00   0.00000000000000E+00   1.41758598097739E-14
      9.76705391393807E-18   1.41856268636878E-14   3.41758734157056E-15   0.00000000000000E+00   0.00000000000000E+00
      0.00000000000000E+00   0.00000000000000E+00  -3.41801056375648E-18  -1.70852892259900E-15  -1.71194693316276E-15
     -1.41344814428640E-15  -8.00000000000000E+00  -8.00000000000000E+00   0.00000000000000E+00   0.00000000000000E+00
     -2.29838894740227E-17  -1.24506960410510E-14  -1.24736799305250E-14  -2.00413919728415E-15
      1.70000000000000E-01
      8.00000000000000E-01   8.00000000000000E-01   0.00000000000000E+00   0.00000000000000E+00   1.42122855637516E-14
     -8.07690656381904E-19   1.42114778730952E-14   3.41094888957975E-15   0.00000000000000E+00   0.00000000000000E+00
      0.00000000000000E+00   0.00000000000000E+00  -1.64235714887421E-18  -1.70215739423653E-15  -1.70379975138541E-15
     -1.39931131646324E-15  -8.50000000000000E+00  -8.50000000000000E+00   0.00000000000000E+00   0.00000000000000E+00
     -2.29841456096227E-17  -1.24846939761002E-14  -1.25076781217098E-14  -2.01163757311651E-15
      1.80000000000000E-01
      8.00000000000000E-01   8.00000000000000E-01   0.00000000000000E+00   0.00000000000000E+00   1.42451048409431E-14
      2.71064898862596E-18   1.42478154899318E-14   3.40412480871333E-15   0.00000000000000E+00   0.00000000000000E+00
      0.00000000000000E+00   0.00000000000000E+00  -1.85163852889448E-18  -1.69466572702483E-15  -1.69651736555373E-15
     -1.38475152671809E-15  -9.00000000000000E+00  -9.00000000000000E+00   0.00000000000000E+00   0.00000000000000E+00
     -2.29844102033066E-17  -1.25283137141747E-14  -1.25512981243780E-14  -2.01937328199525E-15
      1.90000000000000E-01
      8.00000000000000E-01   8.00000000000000E-01   0.00000000000000E+00   0.00000000000000E+00   1.42739040649942E-14
      1.79355402991772E-17   1.42918396052933E-14   3.39713132685952E-15   0.00000000000000E+00   0.00000000000000E+00
      0.00000000000000E+00   0.00000000000000E+00  -2.54263914829424E-18  -1.68615950367955E-15  -1.68870214282784E-15
     -1.36978712474543E-15  -9.50000000000000E+00  -9.50000000000000E+00   0.00000000000000E+00   0.00000000000000E+00
     -2.29846832130403E-17  -1.25801527792524E-14  -1.26031374624655E-14  -2.02734420211409E-15
      2.00000000000000E-01
      8.00000000000000E-01   8.00000000000000E-01   0.00000000000000E+00   0.00000000000000E+00   1.42964272022720E-14
      9.37947729810711E-18   1.43058066795701E-14   3.38998231501281E-15   0.00000000000000E+00   0.00000000000000E+00
      0.00000000000000E+00   0.00000000000000E+00  -5.67687245145951E-19  -1.67668588661466E-15  -1.67725357385980E-15
     -1.35443402426397E-15  -1.00000000000000E+01  -1.00000000000000E+01   0.00000000000000E+00   0.00000000000000E+00
     -2.29849645999926E-17  -1.26055681411104E-14  -1.26285531057103E-14  -2.03554829074884E-15
      2.10000000000000E-01
      8.00000000000000E-01   8.00000000000000E-01   0.00000000000000E+00   0.00000000000000E+00   1.43206281444695E-14
     -2.17343113440862E-17   1.42988938331255E-14   3.38268997715003E-15   0.00000000000000E+00   0.00000000000000E+00
      0.00000000000000E+00   0.00000000000000E+00  -3.08575763582303E-18  -1.66609727045832E-15  -1.66918302809415E-15
     -1.33870638694666E-15  -1.05000000000000E+01  -1.05000000000000E+01   0.00000000000000E+00   0.00000000000000E+00
     -2.29852543287476E-17  -1.26067255507026E-14  -1.26297108050313E-14  -2.04398359020338E-15
      2.20000000000000E-01
      8.00000000000000E-01   8.00000000000000E-01   0.00000000000000E+00   0.00000000000000E+00   1.43386287294722E-14
      5.00334121810141E-18   1.43436320706903E-14   3.37526532550645E-15   0.00000000000000E+00   0.00000000000000E+00
      0.00000000000000E+00   0.00000000000000E+00  -1.45877091720034E-18  -1.65375563256599E-15  -1.65521440348319E-15
     -1.32261709956868E-15  -1.10000000000000E+01  -1.10000000000000E+01   0.00000000000000E+00   0.00000000000000E+00
     -2.29855523672384E-17  -1.26654321148399E-14  -1.26884176672071E-14  -2.05264822593777E-15
      2.30000000000000E-01
      8.00000000000000E-01   8.00000000000000E-01   0.00000000000000E+00   0.00000000000000E+00   1.43577990191698E-14
      9.58714832473088E-18   1.43673861674945E-14   3.36771852753250E-15   0.00000000000000E+00   0.00000000000000E+00
      0.00000000000000E+00   0.00000000000000E+00  -2.45041422410861E-18  -1.63736617420984E-15  -1.63981658843395E-15
     -1.30617812659211E-15  -1.15000000000000E+01  -1.15000000000000E+01   0.00000000000000E+00   0.00000000000000E+00
     -2.29858586865554E-17  -1.27045837203740E-14  -1.27275695790606E-14  -2.06154040094039E-15
      2.40000000000000E-01
      8.00000000000000E-01   8.00000000000000E-01   0.00000000000000E+00   0.00000000000000E+00   1.43731354271561E-14
      4.10681791404444E-18   1.43772422450701E-14   3.36005917928554E-15   0.00000000000000E+00   0.00000000000000E+00
      0.00000000000000E+00   0.00000000000000E+00  -7.00213194350040E-19  -1.60924163115903E-15  -1.60994184435338E-15
     -1.28940079024125E-15  -1.20000000000000E+01  -1.20000000000000E+01   0.00000000000000E+00   0.00000000000000E+00
     -2.29861732607280E-17  -1.27443142274560E-14  -1.27673004007168E-14  -2.07065838904428E-15
      2.50000000000000E-01
      8.00000000000000E-01   8.00000000000000E-01   0.00000000000000E+00   0.00000000000000E+00   1.43921439647251E-14
     -1.14549524199066E-17   1.43806890123052E-14   3.35229653892875E-15   0.00000000000000E+00   0.00000000000000E+00
      0.00000000000000E+00   0.00000000000000E+00  -3.49524777177889E-18  -1.54466146493838E-15  -1.54815671271016E-15
     -1.27229601016436E-15  -1.25000000000000E+01  -1.25000000000000E+01   0.00000000000000E+00   0.00000000000000E+00
     -2.29864960665063E-17  -1.28095458035285E-14  -1.28325322995950E-14  -2.08000052876440E-15
      2.60000000000000E-01
      8.00000000000000E-01   8.00000000000000E-01   0.00000000000000E+00   0.00000000000000E+00   1.44058999663270E-14
      2.82371915396397E-17   1.44341371578667E-14   3.34443974107759E-15   0.00000000000000E+00   0.00000000000000E+00
      0.00000000000000E+00   0.00000000000000E+00  -1.77802570044276E-18  -1.36536392881118E-15  -1.36714195451163E-15
     -1.25487452263102E-15  -1.30000000000000E+01  -1.30000000000000E+01   0.00000000000000E+00   0.00000000000000E+00
     -2.29868270832025E-17  -1.30440083762719E-14  -1.30669952033551E-14  -2.08956521844657E-15
      2.70000000000000E-01
      8.00000000000000E-01   8.00000000000000E-01   0.00000000000000E+00   0.00000000000000E+00   1.44211708501813E-14
     -1.70569658379539E-18   1.44194651535975E-14   3.33649800575684E-15   0.00000000000000E+00   0.00000000000000E+00
      0.00000000000000E+00   0.00000000000000E+00  -2.26730275362814E-18  -8.28509239533193E-16  -8.30776542286821E-16
     -1.23714709271966E-15  -1.35000000000000E+01  -1.35000000000000E+01   0.00000000000000E+00   0.00000000000000E+00
     -2.29871662925787E-17  -1.35657014450181E-14  -1.35886886113107E-14  -2.09935091303718E-15
      2.80000000000000E-01
      8.00000000000000E-01   8.00000000000000E-01   0.00000000000000E+00   0.00000000000000E+00   1.44377222387407E-14
     -2.19730762830295E-17   1.44157491624576E-14   3.32848085272911E-15   0.00000000000000E+00   0.00000000000000E+00
      0.00000000000000E+00   0.00000000000000E+00  -4.76260077588414E-18   8.01201449578562E-16   7.96438848802678E-16
     -1.21912473018388E-15  -1.40000000000000E+01  -1.40000000000000E+01   0.00000000000000E+00   0.00000000000000E+00
     -2.29875136787983E-17  -1.51892004975815E-14  -1.52121880112603E-14  -2.10935612254522E-15
      2.90000000000000E-01
      8.00000000000000E-01   8.00000000000000E-01   0.00000000000000E+00   0.00000000000000E+00   1.44496647408452E-14
     -1.34526803588641E-17   1.44362120604863E-14   3.32039833168518E-15   0.00000000000000E+00   0.00000000000000E+00
      0.00000000000000E+00   0.00000000000000E+00  -3.49850075597816E-18   5.69395524675828E-15   5.69045674600230E-15
     -1.20081891944564E-15  -1.45000000000000E+01  -1.45000000000000E+01   0.00000000000000E+00   0.00000000000000E+00
     -2.29878692284375E-17  -2.01036809372602E-14  -2.01266688064886E-14  -2.11957941223954E-15
      3.00000000000000E-01
      8.00000000000000E-01   8.00000000000000E-01   0.00000000000000E+00   0.00000000000000E+00   1.44583176575320E-14
      4.93398005050097E-19   1.44588110555370E-14   3.31226128106270E-15   0.00000000000000E+00   0.00000000000000E+00
      0.00000000000000E+00   0.00000000000000E+00  -1.71381036459720E-20   2.00838403534189E-14   2.00838232153153E-14
     -1.18224187614550E-15  -1.50000000000000E+01  -1.50000000000000E+01   0.00000000000000E+00   0.00000000000000E+00
     -2.29882329305670E-17  -3.45196460379217E-14  -3.45426342708523E-14  -2.13001940491719E-15
      3.10000000000000E-01
      8.00000000000000E-01   8.00000000000000E-01   0.00000000000000E+00   0.00000000000000E+00   1.44728107003050E-14
      6.31206720247525E-18   1.44791227675075E-14   3.30408163402333E-15   0.00000000000000E+00   0.00000000000000E+00
      0.00000000000000E+00   0.00000000000000E+00  -3.81913736786635E-18   6.13711293037482E-14   6.13673101663804E-14
     -1.16340684751832E-15  -1.55000000000000E+01  -1.55000000000000E+01   0.00000000000000E+00   0.00000000000000E+00
     -2.29886047769533E-17  -7.58234443291111E-14  -7.58464329338880E-14  -2.14067478650501E-15
      3.20000000000000E-01
      8.00000000000000E-01   8.00000000000000E-01   0.00000000000000E+00   0.00000000000000E+00   1.44794726986484E-14
      7.41408547682262E-18   1.44868867841252E-14   3.29587280188003E-15   0.00000000000000E+00   0.00000000000000E+00
      0.00000000000000E+00   0.00000000000000E+00  -1.88730852308390E-18   1.76661156738042E-13   1.76659269429519E-13
     -1.14432848326822E-15  -1.60000000000000E+01  -1.60000000000000E+01   0.00000000000000E+00   0.00000000000000E+00
     -2.29889847625179E-17  -1.91123167228881E-13  -1.91146156213644E-13  -2.15154431861180E-15
      3.30000000000000E-01
      8.00000000000000E-01   8.00000000000000E-01   0.00000000000000E+00   0.00000000000000E+00   1.44834058528827E-14
      8.00865502269532E-18   1.44914145079054E-14   3.28765018794990E-15   0.00000000000000E+00   0.00000000000000E+00
      0.00000000000000E+00   0.00000000000000E+00  -5.73806945380860E-19   4.89405361317563E-13   4.89404787510617E-13
     -1.12502332082171E-15  -1.65000000000000E+01  -1.65000000000000E+01   0.00000000000000E+00   0.00000000000000E+00
     -2.29893728863477E-17  -5.03873212645635E-13  -5.03896202018521E-13  -2.16262686712819E-15
      3.40000000000000E-01
      8.00000000000000E-01   8.00000000000000E-01   0.00000000000000E+00   0.00000000000000E+00   1.44849204418863E-14
      4.22735443544519E-17   1.45271939862407E-14   3.27943192716351E-15   0.00000000000000E+00   0.00000000000000E+00
      0.00000000000000E+00   0.00000000000000E+00  -2.75372827089865E-18   1.31216253495058E-12   1.31215978122231E-12
     -1.10551045920813E-15  -1.70000000000000E+01  -1.70000000000000E+01   0.00000000000000E+00   0.00000000000000E+00
     -2.29897691540603E-17  -1.32666398543940E-12  -1.32668697520856E-12  -2.17392146795538E-15
      3.50000000000000E-01
      8.00000000000000E-01   8.00000000000000E-01   0.00000000000000E+00   0.00000000000000E+00   1.44715836461527E-14
      8.42949140077049E-19   1.44724265952928E-14   3.27124002255544E-15   0.00000000000000E+00   0.00000000000000E+00
      0.00000000000000E+00   0.00000000000000E+00  -1.44275926109398E-18   3.40763008458747E-12   3.40762864182821E-12
     -1.08581254704382E-15  -1.75000000000000E+01  -1.75000000000000E+01   0.00000000000000E+00   0.00000000000000E+00
     -2.29901735831022E-17  -3.42207807824993E-12  -3.42210106842351E-12  -2.18542747551162E-15
      3.60000000000000E-01
      8.00000000000000E-01   8.00000000000000E-01   0.00000000000000E+00   0.00000000000000E+00   1.44376515565083E-14
     -1.96089635096741E-17   1.44180425929987E-14   3.26310217613420E-15   0.00000000000000E+00   0.00000000000000E+00