DF-ISE text

Info {
  version   = 1.0
  type      = xyplot
  datasets  = [
    "time"
    "Ntop OuterVoltage" "Ntop InnerVoltage" "Ntop QuasiFermiPotential" "Ntop DisplacementCurrent" "Ntop eCurrent"
    "Ntop hCurrent" "Ntop TotalCurrent" "Ntop Charge" "Ptop OuterVoltage" "Ptop InnerVoltage"
    "Ptop QuasiFermiPotential" "Ptop DisplacementCurrent" "Ptop eCurrent" "Ptop hCurrent" "Ptop TotalCurrent"
    "Ptop Charge" "Pbot OuterVoltage" "Pbot InnerVoltage" "Pbot QuasiFermiPotential" "Pbot DisplacementCurrent"
    "Pbot eCurrent" "Pbot hCurrent" "Pbot TotalCurrent" "Pbot Charge" ]
  functions = [
    Time
    OuterVoltage InnerVoltage QuasiFermiPotential DisplacementCurrent eCurrent
    hCurrent TotalCurrent Charge OuterVoltage InnerVoltage
    QuasiFermiPotential DisplacementCurrent eCurrent hCurrent TotalCurrent
    Charge OuterVoltage InnerVoltage QuasiFermiPotential DisplacementCurrent
    eCurrent hCurrent TotalCurrent Charge ]
}

Data {
      0.00000000000000E+00
      0.00000000000000E+00   0.00000000000000E+00   0.00000000000000E+00   0.00000000000000E+00   5.47245736879224E-20
     -2.62260372893530E-17  -2.61713127156651E-17   2.76043908183869E-15   0.00000000000000E+00   0.00000000000000E+00
      0.00000000000000E+00   0.00000000000000E+00  -5.47245737138633E-20   3.92607228460772E-19   3.37882654746909E-19
     -8.53597786585168E-16   0.00000000000000E+00   0.00000000000000E+00   0.00000000000000E+00   0.00000000000000E+00
      2.58094047177879E-29   2.58334300608923E-17   2.58334300609181E-17  -1.90684129525353E-15
      0.00000000000000E+00
      0.00000000000000E+00   0.00000000000000E+00   0.00000000000000E+00   0.00000000000000E+00  -1.07080141536937E-19
      6.45317565389679E-19   5.38237423852743E-19   2.76043908183726E-15   0.00000000000000E+00   0.00000000000000E+00
      0.00000000000000E+00   0.00000000000000E+00   1.07080141549901E-19  -2.43160855121056E-21   1.04648532998690E-19
     -8.53597786583731E-16   0.00000000000000E+00   0.00000000000000E+00   0.00000000000000E+00   0.00000000000000E+00
     -8.44667842534971E-30  -6.42885956842985E-19  -6.42885956851432E-19  -1.90684129525353E-15
      1.00000000000000E-01
      8.00000000000000E-02   8.00000000000000E-02   0.00000000000000E+00   0.00000000000000E+00   1.31095848925935E-15
     -2.51647022999541E-19   1.31070684223635E-15   2.83871844013197E-15   0.00000000000000E+00   0.00000000000000E+00
      0.00000000000000E+00   0.00000000000000E+00  -6.59528290626476E-19  -1.63139095116876E-16  -1.63798623407503E-16
     -9.31130119823322E-16   0.00000000000000E+00   0.00000000000000E+00   0.00000000000000E+00   0.00000000000000E+00
     -2.28697587606738E-17  -1.12403846006818E-15  -1.14690821882885E-15  -1.90758832030864E-15
      2.00000000000000E-01
      1.60000000000000E-01   1.60000000000000E-01   0.00000000000000E+00   0.00000000000000E+00   1.96506054203151E-15
      2.09855709048373E-20   1.96508152760241E-15   2.91389419387936E-15   0.00000000000000E+00   0.00000000000000E+00
      0.00000000000000E+00   0.00000000000000E+00  -2.63066019638561E-18  -2.39424522921364E-16  -2.42055183117750E-16
     -1.00555915180748E-15   0.00000000000000E+00   0.00000000000000E+00   0.00000000000000E+00   0.00000000000000E+00
     -2.29805923674261E-17  -1.70004575211724E-15  -1.72302634448466E-15  -1.90833504207188E-15
      3.00000000000000E-01
      2.40000000000000E-01   2.40000000000000E-01   0.00000000000000E+00   0.00000000000000E+00   2.49252276123348E-15
      4.53975679087657E-19   2.49297673691257E-15   2.98647933055695E-15   0.00000000000000E+00   0.00000000000000E+00
      0.00000000000000E+00   0.00000000000000E+00  -2.77734254716228E-18  -3.02524810606958E-16  -3.05302153154121E-16
     -1.07739764755122E-15   0.00000000000000E+00   0.00000000000000E+00   0.00000000000000E+00   0.00000000000000E+00
     -2.29806739050950E-17  -2.16469390985336E-15  -2.18767458375845E-15  -1.90908168300573E-15
      4.00000000000000E-01
      3.20000000000000E-01   3.20000000000000E-01   0.00000000000000E+00   0.00000000000000E+00   2.96278311490230E-15
      2.56817706796580E-19   2.96303993260910E-15   3.05682648722966E-15   0.00000000000000E+00   0.00000000000000E+00
      0.00000000000000E+00   0.00000000000000E+00  -9.66597928420849E-19  -3.65274743023243E-16  -3.66241340951664E-16
     -1.14699823252031E-15   0.00000000000000E+00   0.00000000000000E+00   0.00000000000000E+00   0.00000000000000E+00
     -2.29806983314467E-17  -2.57381789332599E-15  -2.59679859165744E-15  -1.90982825470935E-15
      5.00000000000000E-01
      4.00000000000000E-01   4.00000000000000E-01   0.00000000000000E+00   0.00000000000000E+00   3.39864970554156E-15
      5.26531612945622E-19   3.39917623715451E-15   3.12517144538374E-15   0.00000000000000E+00   0.00000000000000E+00
      0.00000000000000E+00   0.00000000000000E+00  -9.03478916453408E-20  -4.27825747039734E-16  -4.27916094931380E-16
     -1.21459675618501E-15   0.00000000000000E+00   0.00000000000000E+00   0.00000000000000E+00   0.00000000000000E+00
     -2.29807233121710E-17  -2.94827941891096E-15  -2.97126014222313E-15  -1.91057468919874E-15
      6.00000000000000E-01
      4.80000000000000E-01   4.80000000000000E-01   0.00000000000000E+00   0.00000000000000E+00   3.80702726267424E-15
     -1.34606114764562E-18   3.80568120152660E-15   3.19165612262247E-15   0.00000000000000E+00   0.00000000000000E+00
      0.00000000000000E+00   0.00000000000000E+00  -1.70421600797910E-18  -4.84881614592609E-16  -4.86585830600588E-16
     -1.28033522462617E-15   0.00000000000000E+00   0.00000000000000E+00   0.00000000000000E+00   0.00000000000000E+00
     -2.29807483072665E-17  -3.29611462261874E-15  -3.31909537092601E-15  -1.91132089799629E-15
      7.00000000000000E-01
      5.60000000000000E-01   5.60000000000000E-01   0.00000000000000E+00   0.00000000000000E+00   4.19340744922039E-15
     -1.41153748764088E-18   4.19199591173275E-15   3.25633968588898E-15   0.00000000000000E+00   0.00000000000000E+00
      0.00000000000000E+00   0.00000000000000E+00  -4.67118977375397E-18  -5.37644988912400E-16  -5.42316178686154E-16
     -1.34427288948631E-15   0.00000000000000E+00   0.00000000000000E+00   0.00000000000000E+00   0.00000000000000E+00
     -2.29807732993008E-17  -3.62669895974730E-15  -3.64967973304660E-15  -1.91206679640267E-15
      8.00000000000000E-01
      6.40000000000000E-01   6.40000000000000E-01   0.00000000000000E+00   0.00000000000000E+00   4.55756419283025E-15
     -5.21051623015707E-19   4.55704314120723E-15   3.31920397588041E-15   0.00000000000000E+00   0.00000000000000E+00
      0.00000000000000E+00   0.00000000000000E+00  -3.14753876582966E-18  -5.89425148630068E-16  -5.92572687395897E-16
     -1.40639166478265E-15   0.00000000000000E+00   0.00000000000000E+00   0.00000000000000E+00   0.00000000000000E+00
     -2.29807982848044E-17  -3.94148965552653E-15  -3.96447045381133E-15  -1.91281231109776E-15
      9.00000000000000E-01
      7.20000000000000E-01   7.20000000000000E-01   0.00000000000000E+00   0.00000000000000E+00   4.90814888093213E-15
      4.14355266317042E-19   4.90856323619844E-15   3.38016388549831E-15   0.00000000000000E+00   0.00000000000000E+00
      0.00000000000000E+00   0.00000000000000E+00  -2.37959290196441E-18  -6.42094665099812E-16  -6.44474258001777E-16
     -1.46660650663686E-15   0.00000000000000E+00   0.00000000000000E+00   0.00000000000000E+00   0.00000000000000E+00
     -2.29808232613078E-17  -4.24110815493536E-15  -4.26408897819667E-15  -1.91355737886146E-15
      1.00000000000000E+00
      8.00000000000000E-01   8.00000000000000E-01   0.00000000000000E+00   0.00000000000000E+00   5.24654836379759E-15
     -1.78608090882286E-19   5.24636975570671E-15   3.43910410981461E-15   0.00000000000000E+00   0.00000000000000E+00
      0.00000000000000E+00   0.00000000000000E+00  -1.31932804866759E-18  -6.96932974329682E-16  -6.98252302378349E-16
     -1.52480217151774E-15   0.00000000000000E+00   0.00000000000000E+00   0.00000000000000E+00   0.00000000000000E+00
     -2.29808482264839E-17  -4.52513660510188E-15  -4.54811745332836E-15  -1.91430193829688E-15
      0.00000000000000E+00
      8.00000000000000E-01   8.00000000000000E-01   0.00000000000000E+00   0.00000000000000E+00   5.24654836399154E-15
      2.31160891638379E-19   5.24677952488318E-15   3.43910410981462E-15   0.00000000000000E+00   0.00000000000000E+00
      0.00000000000000E+00   0.00000000000000E+00  -1.31932824264632E-18  -6.96935576915085E-16  -6.98254905157731E-16
     -1.52480217151774E-15   0.00000000000000E+00   0.00000000000000E+00   0.00000000000000E+00   0.00000000000000E+00
     -2.29808482264838E-17  -4.52554377149897E-15  -4.54852461972546E-15  -1.91430193829688E-15
      1.00000000000000E-02
      8.00000000000000E-01   8.00000000000000E-01   0.00000000000000E+00   0.00000000000000E+00   6.79245320482678E-15
     -2.55600871886399E-18   6.78989719610792E-15   3.44373248092335E-15   0.00000000000000E+00   0.00000000000000E+00
      0.00000000000000E+00   0.00000000000000E+00  -1.31988835230714E-18  -6.91127915451790E-16  -6.92447803804097E-16
     -1.52478814134361E-15  -5.00000000000000E-01  -5.00000000000000E-01   0.00000000000000E+00   0.00000000000000E+00
     -2.29810088780775E-17  -6.07446838342574E-15  -6.09744939230382E-15  -1.91894433957975E-15
      2.00000000000000E-02
      8.00000000000000E-01   8.00000000000000E-01   0.00000000000000E+00   0.00000000000000E+00   8.07599981912694E-15
     -1.04732506729324E-18   8.07495249405965E-15   3.44829545188517E-15   0.00000000000000E+00   0.00000000000000E+00
      0.00000000000000E+00   0.00000000000000E+00  -2.40736875247063E-18  -6.87089456447732E-16  -6.89496825200202E-16
     -1.52472492395921E-15  -1.00000000000000E+00  -1.00000000000000E+00   0.00000000000000E+00   0.00000000000000E+00
     -2.29811594220542E-17  -7.36247450943739E-15  -7.38545566885944E-15  -1.92357052792596E-15
      3.00000000000000E-02
      8.00000000000000E-01   8.00000000000000E-01   0.00000000000000E+00   0.00000000000000E+00   9.18025315462218E-15
      1.94259652752841E-20   9.18027258058746E-15   3.45268530124354E-15   0.00000000000000E+00   0.00000000000000E+00
      0.00000000000000E+00   0.00000000000000E+00  -1.46754150518187E-18  -6.84665438969827E-16  -6.86132980475009E-16
     -1.52449242570668E-15  -1.50000000000000E+00  -1.50000000000000E+00   0.00000000000000E+00   0.00000000000000E+00
     -2.29813148780817E-17  -8.47115828523437E-15  -8.49413960011245E-15  -1.92819287553686E-15
      4.00000000000000E-02
      8.00000000000000E-01   8.00000000000000E-01   0.00000000000000E+00   0.00000000000000E+00   1.01179471587155E-14
     -2.23457719003137E-18   1.01157125815255E-14   3.45664603339639E-15   0.00000000000000E+00   0.00000000000000E+00
      0.00000000000000E+00   0.00000000000000E+00  -1.57305176934205E-18  -6.84178179936040E-16  -6.85751231705382E-16
     -1.52379909830667E-15  -2.00000000000000E+00  -2.00000000000000E+00   0.00000000000000E+00   0.00000000000000E+00
     -2.29814715609580E-17  -9.40697987825916E-15  -9.42996134982012E-15  -1.93284693508972E-15
      5.00000000000000E-02
      8.00000000000000E-01   8.00000000000000E-01   0.00000000000000E+00   0.00000000000000E+00   1.08461520238375E-14
     -7.32841217088461E-19   1.08454191826204E-14   3.45974812220596E-15   0.00000000000000E+00   0.00000000000000E+00
      0.00000000000000E+00   0.00000000000000E+00  -8.53358100792691E-19  -6.86478517352551E-16  -6.87331875453343E-16
     -1.52214537933592E-15  -2.50000000000000E+00  -2.50000000000000E+00   0.00000000000000E+00   0.00000000000000E+00
     -2.29816318291256E-17  -1.01351056753380E-14  -1.01580873071671E-14  -1.93760274287005E-15
      6.00000000000000E-02
      8.00000000000000E-01   8.00000000000000E-01   0.00000000000000E+00   0.00000000000000E+00   1.14082404116761E-14
     -2.13601933549035E-18   1.14061043923406E-14   3.46141552216253E-15   0.00000000000000E+00   0.00000000000000E+00
      0.00000000000000E+00   0.00000000000000E+00  -2.67552979275541E-18  -6.92949496189180E-16  -6.95625025981936E-16
     -1.51890240909312E-15  -3.00000000000000E+00  -3.00000000000000E+00   0.00000000000000E+00   0.00000000000000E+00
     -2.29817974705057E-17  -1.06874975688881E-14  -1.07104793663586E-14  -1.94251311306941E-15
      7.00000000000000E-02
      8.00000000000000E-01   8.00000000000000E-01   0.00000000000000E+00   0.00000000000000E+00   1.18777289494921E-14
     -2.41019442367439E-18   1.18753187550685E-14   3.46123663908146E-15   0.00000000000000E+00   0.00000000000000E+00
      0.00000000000000E+00   0.00000000000000E+00  -1.16581527842730E-18  -7.05443505700749E-16  -7.06609320979176E-16
     -1.51362542530129E-15  -3.50000000000000E+00  -3.50000000000000E+00   0.00000000000000E+00   0.00000000000000E+00
     -2.29819696172437E-17  -1.11457274644720E-14  -1.11687094340893E-14  -1.94761121378017E-15
      8.00000000000000E-02
      8.00000000000000E-01   8.00000000000000E-01   0.00000000000000E+00   0.00000000000000E+00   1.22458369165509E-14
      2.60049052755696E-18   1.22484374070785E-14   3.45929632560590E-15   0.00000000000000E+00   0.00000000000000E+00
      0.00000000000000E+00   0.00000000000000E+00  -9.70237718101317E-19  -7.25757938354674E-16  -7.26728176072775E-16
     -1.50637388127733E-15  -4.00000000000000E+00  -4.00000000000000E+00   0.00000000000000E+00   0.00000000000000E+00
     -2.29821491440165E-17  -1.14987270818617E-14  -1.15217092310057E-14  -1.95292244432856E-15
      9.00000000000000E-02
      8.00000000000000E-01   8.00000000000000E-01   0.00000000000000E+00   0.00000000000000E+00   1.25322939840288E-14
      7.47686786285402E-18   1.25397708518916E-14   3.45603164064857E-15   0.00000000000000E+00   0.00000000000000E+00
      0.00000000000000E+00   0.00000000000000E+00  -5.72501457878425E-19  -7.53700850219602E-16  -7.54273351677481E-16
     -1.49756639544966E-15  -4.50000000000000E+00  -4.50000000000000E+00   0.00000000000000E+00   0.00000000000000E+00
     -2.29823366942246E-17  -1.17625151635199E-14  -1.17854975002141E-14  -1.95846524519891E-15
      1.00000000000000E-01
      8.00000000000000E-01   8.00000000000000E-01   0.00000000000000E+00   0.00000000000000E+00   1.27526519138287E-14
      3.63408370930837E-18   1.27562859975381E-14   3.45186353133779E-15   0.00000000000000E+00   0.00000000000000E+00
      0.00000000000000E+00   0.00000000000000E+00  -1.67530738983179E-18  -7.83510780901960E-16  -7.85186088291792E-16
     -1.48761318832849E-15  -5.00000000000000E+00  -5.00000000000000E+00   0.00000000000000E+00   0.00000000000000E+00
     -2.29825326533076E-17  -1.19481173765930E-14  -1.19710999092463E-14  -1.96425034300930E-15
      1.10000000000000E-01
      8.00000000000000E-01   8.00000000000000E-01   0.00000000000000E+00   0.00000000000000E+00   1.29136246574226E-14
      9.91659145988194E-19   1.29146163165686E-14   3.44706588141439E-15   0.00000000000000E+00   0.00000000000000E+00
      0.00000000000000E+00   0.00000000000000E+00  -2.12458978483672E-18  -8.05774100522291E-16  -8.07898690307127E-16
     -1.47678350677071E-15  -5.50000000000000E+00  -5.50000000000000E+00   0.00000000000000E+00   0.00000000000000E+00
     -2.29827372025665E-17  -1.20837348890589E-14  -1.21067176262615E-14  -1.97028237464368E-15
      1.20000000000000E-01
      8.00000000000000E-01   8.00000000000000E-01   0.00000000000000E+00   0.00000000000000E+00   1.30275757334259E-14
     -5.28511079854937E-19   1.30270472223461E-14   3.44180036805292E-15   0.00000000000000E+00   0.00000000000000E+00
      0.00000000000000E+00   0.00000000000000E+00  -1.45219437608078E-18  -8.17429224671692E-16  -8.18881419047773E-16
     -1.46523791422876E-15  -6.00000000000000E+00  -6.00000000000000E+00   0.00000000000000E+00   0.00000000000000E+00
     -2.29829504052638E-17  -1.21851828528930E-14  -1.22081658032983E-14  -1.97656245382417E-15
      1.30000000000000E-01
      8.00000000000000E-01   8.00000000000000E-01   0.00000000000000E+00   0.00000000000000E+00   1.31129477997047E-14
     -2.32709479398386E-18   1.31106207049108E-14   3.43616515316566E-15   0.00000000000000E+00   0.00000000000000E+00
      0.00000000000000E+00   0.00000000000000E+00  -2.00182052603709E-18  -8.21462775725640E-16  -8.23464596251677E-16
     -1.45307524510687E-15  -6.50000000000000E+00  -6.50000000000000E+00   0.00000000000000E+00   0.00000000000000E+00
     -2.29831722650394E-17  -1.22641729363940E-14  -1.22871561086591E-14  -1.98308990805879E-15
      1.40000000000000E-01
      8.00000000000000E-01   8.00000000000000E-01   0.00000000000000E+00   0.00000000000000E+00   1.31792585081709E-14
      4.51474383677996E-18   1.31837732520077E-14   3.43022386988212E-15   0.00000000000000E+00   0.00000000000000E+00
      0.00000000000000E+00   0.00000000000000E+00  -1.90966072800429E-18  -8.21011574113634E-16  -8.22921234841638E-16
     -1.44036067939645E-15  -7.00000000000000E+00  -7.00000000000000E+00   0.00000000000000E+00   0.00000000000000E+00
     -2.29834027566026E-17  -1.23378686144095E-14  -1.23608520171661E-14  -1.98986319048566E-15
      1.50000000000000E-01
      8.00000000000000E-01   8.00000000000000E-01   0.00000000000000E+00   0.00000000000000E+00   1.32344939117499E-14
     -2.74136056895466E-18   1.32317525511809E-14   3.42402054175632E-15   0.00000000000000E+00   0.00000000000000E+00
      0.00000000000000E+00   0.00000000000000E+00  -2.95989096831435E-18  -8.17827039590353E-16  -8.20786930558667E-16
     -1.42714020569797E-15  -7.50000000000000E+00  -7.50000000000000E+00   0.00000000000000E+00   0.00000000000000E+00
     -2.29836418410931E-17  -1.23879819787812E-14  -1.24109656206223E-14  -1.99688033605835E-15
      1.60000000000000E-01
      8.00000000000000E-01   8.00000000000000E-01   0.00000000000000E+00   0.00000000000000E+00   1.32769614419338E-14
      9.98161998997271E-18   1.32869430619238E-14   3.41758734157135E-15   0.00000000000000E+00   0.00000000000000E+00
      0.00000000000000E+00   0.00000000000000E+00  -2.09968801740135E-19  -8.12838866198254E-16  -8.13048834999995E-16
     -1.41344814428720E-15  -8.00000000000000E+00  -8.00000000000000E+00   0.00000000000000E+00   0.00000000000000E+00
     -2.29838894740227E-17  -1.24509103374498E-14  -1.24738942269238E-14  -2.00413919728415E-15
      1.70000000000000E-01
      8.00000000000000E-01   8.00000000000000E-01   0.00000000000000E+00   0.00000000000000E+00   1.33172082740244E-14
     -5.61920591154262E-19   1.33166463534333E-14   3.41094888958056E-15   0.00000000000000E+00   0.00000000000000E+00
      0.00000000000000E+00   0.00000000000000E+00  -2.25539181541661E-18  -8.06466399859335E-16  -8.08721791674752E-16
     -1.39931131646404E-15  -8.50000000000000E+00  -8.50000000000000E+00   0.00000000000000E+00   0.00000000000000E+00
     -2.29841456096227E-17  -1.24849404161489E-14  -1.25079245617585E-14  -2.01163757311651E-15
      1.80000000000000E-01
      8.00000000000000E-01   8.00000000000000E-01   0.00000000000000E+00   0.00000000000000E+00   1.33495332048646E-14
      2.85877144710593E-18   1.33523919763117E-14   3.40412480871413E-15   0.00000000000000E+00   0.00000000000000E+00
      0.00000000000000E+00   0.00000000000000E+00  -1.97032500327429E-18  -7.98973519451234E-16  -8.00943844454508E-16
     -1.38475152671888E-15  -9.00000000000000E+00  -9.00000000000000E+00   0.00000000000000E+00   0.00000000000000E+00
     -2.29844102033066E-17  -1.25284637216539E-14  -1.25514481318572E-14  -2.01937328199525E-15
      1.90000000000000E-01
      8.00000000000000E-01   8.00000000000000E-01   0.00000000000000E+00   0.00000000000000E+00   1.33783376404895E-14
      1.83512009808362E-17   1.33966888414703E-14   3.39713132686031E-15   0.00000000000000E+00   0.00000000000000E+00
      0.00000000000000E+00   0.00000000000000E+00  -2.66653519468991E-18  -7.90466966642454E-16  -7.93133501837143E-16
     -1.36978712474621E-15  -9.50000000000000E+00  -9.50000000000000E+00   0.00000000000000E+00   0.00000000000000E+00
     -2.29846832130398E-17  -1.25805706564202E-14  -1.26035553396332E-14  -2.02734420211409E-15
      2.00000000000000E-01
      8.00000000000000E-01   8.00000000000000E-01   0.00000000000000E+00   0.00000000000000E+00   1.34036412755494E-14
      9.81791042943181E-18   1.34134591859789E-14   3.38998231501359E-15   0.00000000000000E+00   0.00000000000000E+00
      0.00000000000000E+00   0.00000000000000E+00  -3.47207890583419E-18  -7.80994692935365E-16  -7.84466771841199E-16
     -1.35443402426475E-15  -1.00000000000000E+01  -1.00000000000000E+01   0.00000000000000E+00   0.00000000000000E+00
     -2.29849645999924E-17  -1.26060074495377E-14  -1.26289924141377E-14  -2.03554829074884E-15
      2.10000000000000E-01
      8.00000000000000E-01   8.00000000000000E-01   0.00000000000000E+00   0.00000000000000E+00   1.34255278036047E-14
     -2.10844442552844E-17   1.34044433593494E-14   3.38268997715081E-15   0.00000000000000E+00   0.00000000000000E+00
      0.00000000000000E+00   0.00000000000000E+00  -3.67573281614972E-18  -7.70413933925409E-16  -7.74089666741558E-16
     -1.33870638694743E-15  -1.05000000000000E+01  -1.05000000000000E+01   0.00000000000000E+00   0.00000000000000E+00
     -2.29852543287473E-17  -1.26073684382791E-14  -1.26303536926079E-14  -2.04398359020338E-15
      2.20000000000000E-01
      8.00000000000000E-01   8.00000000000000E-01   0.00000000000000E+00   0.00000000000000E+00   1.34437383548252E-14
      5.60112049640107E-18   1.34493394753216E-14   3.37526532550722E-15   0.00000000000000E+00   0.00000000000000E+00
      0.00000000000000E+00   0.00000000000000E+00  -2.25870980211643E-18  -7.58073782405928E-16  -7.60332492208044E-16
     -1.32261709956945E-15  -1.10000000000000E+01  -1.10000000000000E+01   0.00000000000000E+00   0.00000000000000E+00
     -2.29855523672387E-17  -1.26660214307463E-14  -1.26890069831136E-14  -2.05264822593777E-15
      2.30000000000000E-01
      8.00000000000000E-01   8.00000000000000E-01   0.00000000000000E+00   0.00000000000000E+00   1.34610662509372E-14
      1.02605627207573E-17   1.34713268136579E-14   3.36771852753326E-15   0.00000000000000E+00   0.00000000000000E+00
      0.00000000000000E+00   0.00000000000000E+00  -1.40795683066893E-18  -7.41674243300715E-16  -7.43082200131384E-16
     -1.30617812659288E-15  -1.15000000000000E+01  -1.15000000000000E+01   0.00000000000000E+00   0.00000000000000E+00
     -2.29858586865555E-17  -1.27052587548400E-14  -1.27282446135266E-14  -2.06154040094039E-15
      2.40000000000000E-01
      8.00000000000000E-01   8.00000000000000E-01   0.00000000000000E+00   0.00000000000000E+00   1.34780564655184E-14
      4.98488143322264E-18   1.34830413469516E-14   3.36005917928630E-15   0.00000000000000E+00   0.00000000000000E+00
      0.00000000000000E+00   0.00000000000000E+00  -1.31155951924242E-18  -7.13550771480666E-16  -7.14862330999909E-16
     -1.28940079024202E-15  -1.20000000000000E+01  -1.20000000000000E+01   0.00000000000000E+00   0.00000000000000E+00
     -2.29861732607284E-17  -1.27451928426910E-14  -1.27681790159517E-14  -2.07065838904428E-15
      2.50000000000000E-01
      8.00000000000000E-01   8.00000000000000E-01   0.00000000000000E+00   0.00000000000000E+00   1.34956083752472E-14
     -1.04894479896155E-17   1.34851189272576E-14   3.35229653892951E-15   0.00000000000000E+00   0.00000000000000E+00
      0.00000000000000E+00   0.00000000000000E+00  -2.64996319203710E-18  -6.48972332295792E-16  -6.51622295487829E-16
     -1.27229601016512E-15  -1.25000000000000E+01  -1.25000000000000E+01   0.00000000000000E+00   0.00000000000000E+00
     -2.29864960665059E-17  -1.28105101357032E-14  -1.28334966317697E-14  -2.08000052876440E-15
      2.60000000000000E-01
      8.00000000000000E-01   8.00000000000000E-01   0.00000000000000E+00   0.00000000000000E+00   1.35109928052366E-14
      2.92118449045433E-17   1.35402046501411E-14   3.34443974107837E-15   0.00000000000000E+00   0.00000000000000E+00
      0.00000000000000E+00   0.00000000000000E+00  -2.56116625205195E-18  -4.69673231109787E-16  -4.72234397361839E-16
     -1.25487452263179E-15  -1.30000000000000E+01  -1.30000000000000E+01   0.00000000000000E+00   0.00000000000000E+00
     -2.29868270832026E-17  -1.30449834256961E-14  -1.30679702527793E-14  -2.08956521844657E-15
      2.70000000000000E-01
      8.00000000000000E-01   8.00000000000000E-01   0.00000000000000E+00   0.00000000000000E+00   1.35240510701210E-14
     -6.93798160452899E-19   1.35233572719606E-14   3.33649800575760E-15   0.00000000000000E+00   0.00000000000000E+00
      0.00000000000000E+00   0.00000000000000E+00  -8.37820884395493E-19   6.71870689385289E-17   6.63492480541334E-17
     -1.23714709272042E-15  -1.35000000000000E+01  -1.35000000000000E+01   0.00000000000000E+00   0.00000000000000E+00
     -2.29871662925787E-17  -1.35667193537221E-14  -1.35897065200147E-14  -2.09935091303718E-15
      2.80000000000000E-01
      8.00000000000000E-01   8.00000000000000E-01   0.00000000000000E+00   0.00000000000000E+00   1.35386143364331E-14
     -2.08943799338991E-17   1.35177199564992E-14   3.32848085272987E-15   0.00000000000000E+00   0.00000000000000E+00
      0.00000000000000E+00   0.00000000000000E+00  -1.34499301080822E-18   1.69689524539554E-15   1.69555025238473E-15
     -1.21912473018465E-15  -1.40000000000000E+01  -1.40000000000000E+01   0.00000000000000E+00   0.00000000000000E+00
     -2.29875136787977E-17  -1.51902826952051E-14  -1.52132702088839E-14  -2.10935612254522E-15
      2.90000000000000E-01
      8.00000000000000E-01   8.00000000000000E-01   0.00000000000000E+00   0.00000000000000E+00   1.35526165818172E-14
     -1.21760154182107E-17   1.35404405663990E-14   3.32039833168594E-15   0.00000000000000E+00   0.00000000000000E+00
      0.00000000000000E+00   0.00000000000000E+00  -2.14063242225213E-18   6.58964393365499E-15   6.58750330123274E-15
     -1.20081891944640E-15  -1.45000000000000E+01  -1.45000000000000E+01   0.00000000000000E+00   0.00000000000000E+00
     -2.29878692284374E-17  -2.01049559984032E-14  -2.01279438676317E-14  -2.11957941223954E-15
      3.00000000000000E-01
      8.00000000000000E-01   8.00000000000000E-01   0.00000000000000E+00   0.00000000000000E+00   1.35650529324329E-14
      1.75329613982468E-18   1.35668062285727E-14   3.31226128106346E-15   0.00000000000000E+00   0.00000000000000E+00
      0.00000000000000E+00   0.00000000000000E+00  -2.44269965019465E-18   2.09795350923022E-14   2.09770923926520E-14
     -1.18224187614626E-15  -1.50000000000000E+01  -1.50000000000000E+01   0.00000000000000E+00   0.00000000000000E+00
     -2.29882329305660E-17  -3.45209103882942E-14  -3.45438986212247E-14  -2.13001940491719E-15
      3.10000000000000E-01
      8.00000000000000E-01   8.00000000000000E-01   0.00000000000000E+00   0.00000000000000E+00   1.35758893615500E-14
      7.59776351970561E-18   1.35834871250697E-14   3.30408163402408E-15   0.00000000000000E+00   0.00000000000000E+00
      0.00000000000000E+00   0.00000000000000E+00  -2.58808100949679E-18   6.22668196682205E-14   6.22642315872110E-14
     -1.16340684751907E-15  -1.55000000000000E+01  -1.55000000000000E+01   0.00000000000000E+00   0.00000000000000E+00
     -2.29886047769531E-17  -7.58247301075037E-14  -7.58477187122806E-14  -2.14067478650501E-15
      3.20000000000000E-01
      8.00000000000000E-01   8.00000000000000E-01   0.00000000000000E+00   0.00000000000000E+00   1.35805158391415E-14
      8.79382083231313E-18   1.35893096599738E-14   3.29587280188079E-15   0.00000000000000E+00   0.00000000000000E+00
      0.00000000000000E+00   0.00000000000000E+00   1.37927303485839E-18   1.77556849491598E-13   1.77558228764633E-13
     -1.14432848326898E-15  -1.60000000000000E+01  -1.60000000000000E+01   0.00000000000000E+00   0.00000000000000E+00
     -2.29889847625180E-17  -1.91124549439844E-13  -1.91147538424606E-13  -2.15154431861180E-15
      3.30000000000000E-01
      8.00000000000000E-01   8.00000000000000E-01   0.00000000000000E+00   0.00000000000000E+00   1.35885316381355E-14
      9.51609875399093E-18   1.35980477368895E-14   3.28765018795065E-15   0.00000000000000E+00   0.00000000000000E+00
      0.00000000000000E+00   0.00000000000000E+00  -1.38986550230072E-18   4.90301054935935E-13   4.90299665070433E-13
     -1.12502332082246E-15  -1.65000000000000E+01  -1.65000000000000E+01   0.00000000000000E+00   0.00000000000000E+00
     -2.29893728863477E-17  -5.03874723434436E-13  -5.03897712807322E-13  -2.16262686712819E-15
      3.40000000000000E-01
      8.00000000000000E-01   8.00000000000000E-01   0.00000000000000E+00   0.00000000000000E+00   1.35900617692336E-14
      4.37732118372042E-17   1.36338349810708E-14   3.27943192716427E-15   0.00000000000000E+00   0.00000000000000E+00
      0.00000000000000E+00   0.00000000000000E+00  -3.58532407573052E-18   1.31305822562797E-12   1.31305464030389E-12
     -1.10551045920889E-15  -1.70000000000000E+01  -1.70000000000000E+01   0.00000000000000E+00   0.00000000000000E+00
     -2.29897691540607E-17  -1.32666548551581E-12  -1.32668847528497E-12  -2.17392146795538E-15
      3.50000000000000E-01
      8.00000000000000E-01   8.00000000000000E-01   0.00000000000000E+00   0.00000000000000E+00   1.35767394290120E-14
      2.46638289552642E-18   1.35792058119075E-14   3.27124002255619E-15   0.00000000000000E+00   0.00000000000000E+00
      0.00000000000000E+00   0.00000000000000E+00  -2.28880549950930E-18   3.40852576935410E-12   3.40852348054860E-12
     -1.08581254704457E-15  -1.75000000000000E+01  -1.75000000000000E+01   0.00000000000000E+00   0.00000000000000E+00
     -2.29901735831019E-17  -3.42207969618693E-12  -3.42210268636051E-12  -2.18542747551162E-15
      3.60000000000000E-01
      8.00000000000000E-01   8.00000000000000E-01   0.00000000000000E+00   0.00000000000000E+00   1.35408529736740E-14
     -1.79038061004131E-17   1.35229491675736E-14   3.26310217613495E-15   0.00000000000000E+00   0.00000000000000E+00