DF-ISE text

Info {
  version   = 1.0
  type      = xyplot
  datasets  = [
    "time"
    "Ntop_0_1 OuterVoltage" "Ntop_0_1 InnerVoltage" "Ntop_0_1 QuasiFermiPotential" "Ntop_0_1 DisplacementCurrent" "Ntop_0_1 eCurrent"
    "Ntop_0_1 hCurrent" "Ntop_0_1 TotalCurrent" "Ntop_0_1 Charge" "Ntop_1_0 OuterVoltage" "Ntop_1_0 InnerVoltage"
    "Ntop_1_0 QuasiFermiPotential" "Ntop_1_0 DisplacementCurrent" "Ntop_1_0 eCurrent" "Ntop_1_0 hCurrent" "Ntop_1_0 TotalCurrent"
    "Ntop_1_0 Charge" "Ntop_1_1 OuterVoltage" "Ntop_1_1 InnerVoltage" "Ntop_1_1 QuasiFermiPotential" "Ntop_1_1 DisplacementCurrent"
    "Ntop_1_1 eCurrent" "Ntop_1_1 hCurrent" "Ntop_1_1 TotalCurrent" "Ntop_1_1 Charge" "Ptop OuterVoltage"
    "Ptop InnerVoltage" "Ptop QuasiFermiPotential" "Ptop DisplacementCurrent" "Ptop eCurrent" "Ptop hCurrent"
    "Ptop TotalCurrent" "Ptop Charge" "Pbot OuterVoltage" "Pbot InnerVoltage" "Pbot QuasiFermiPotential"
    "Pbot DisplacementCurrent" "Pbot eCurrent" "Pbot hCurrent" "Pbot TotalCurrent" "Pbot Charge"
    "Ntop_0_0 OuterVoltage" "Ntop_0_0 InnerVoltage" "Ntop_0_0 QuasiFermiPotential" "Ntop_0_0 DisplacementCurrent" "Ntop_0_0 eCurrent"
    "Ntop_0_0 hCurrent" "Ntop_0_0 TotalCurrent" "Ntop_0_0 Charge" ]
  functions = [
    Time
    OuterVoltage InnerVoltage QuasiFermiPotential DisplacementCurrent eCurrent
    hCurrent TotalCurrent Charge OuterVoltage InnerVoltage
    QuasiFermiPotential DisplacementCurrent eCurrent hCurrent TotalCurrent
    Charge OuterVoltage InnerVoltage QuasiFermiPotential DisplacementCurrent
    eCurrent hCurrent TotalCurrent Charge OuterVoltage
    InnerVoltage QuasiFermiPotential DisplacementCurrent eCurrent hCurrent
    TotalCurrent Charge OuterVoltage InnerVoltage QuasiFermiPotential
    DisplacementCurrent eCurrent hCurrent TotalCurrent Charge
    OuterVoltage InnerVoltage QuasiFermiPotential DisplacementCurrent eCurrent
    hCurrent TotalCurrent Charge ]
}

Data {
      0.00000000000000E+00
      0.00000000000000E+00   0.00000000000000E+00   0.00000000000000E+00   0.00000000000000E+00  -1.26349073873486E-21
     -1.02349602998753E-20  -1.14984510386101E-20   6.79367861085711E-14   0.00000000000000E+00   0.00000000000000E+00
      0.00000000000000E+00   0.00000000000000E+00   1.67913771800990E-22   2.42391435549563E-18   2.42408226926743E-18
      1.94873424863984E-13   0.00000000000000E+00   0.00000000000000E+00   0.00000000000000E+00   0.00000000000000E+00
     -5.06759636209020E-23   9.29807432141497E-19   9.29756756177876E-19   1.24322164969535E-13   0.00000000000000E+00
      0.00000000000000E+00   0.00000000000000E+00   0.00000000000000E+00  -2.51004673497373E-26   3.98441712822165E-20
      3.98441461817492E-20  -2.76537043730618E-13   0.00000000000000E+00   0.00000000000000E+00   0.00000000000000E+00
      0.00000000000000E+00  -3.05725603202316E-29  -3.38039158718064E-18  -3.38039158721122E-18  -1.83060835553290E-13
      0.00000000000000E+00   0.00000000000000E+00   0.00000000000000E+00   0.00000000000000E+00   1.14627801812152E-21
     -2.93941139538868E-21  -1.79313337726716E-21   7.24655033418219E-14
      0.00000000000000E+00
      0.00000000000000E+00   0.00000000000000E+00   0.00000000000000E+00   0.00000000000000E+00   2.19509464697699E-21
     -1.04757245143221E-17  -1.04735294196751E-17   6.79367862540695E-14   0.00000000000000E+00   0.00000000000000E+00
      0.00000000000000E+00   0.00000000000000E+00   1.77680304941499E-21  -1.04712341834994E-17  -1.04694573804500E-17
      1.94873425009483E-13   0.00000000000000E+00   0.00000000000000E+00   0.00000000000000E+00   0.00000000000000E+00
     -3.12455397941758E-21  -1.04745431665139E-17  -1.04776677204933E-17   1.24322165115033E-13   0.00000000000000E+00
      0.00000000000000E+00   0.00000000000000E+00   0.00000000000000E+00   1.17584883251341E-24   4.19044024258727E-17
      4.19044036017215E-17  -2.76537044312614E-13   0.00000000000000E+00   0.00000000000000E+00   0.00000000000000E+00
      0.00000000000000E+00  -9.83482364514576E-29  -6.10166136653332E-21  -6.10166146488155E-21  -1.83060835553290E-13
      0.00000000000000E+00   0.00000000000000E+00   0.00000000000000E+00   0.00000000000000E+00  -8.48519155801442E-22
     -1.04767989004828E-17  -1.04776474196386E-17   7.24655034873206E-14
      1.00000000000000E-01
      8.00000000000000E-02   8.00000000000000E-02   0.00000000000000E+00   0.00000000000000E+00   1.56324541939686E-14
      1.98605656122192E-17   1.56523147595808E-14   7.47834919647155E-14   8.00000000000000E-02   8.00000000000000E-02
      0.00000000000000E+00   0.00000000000000E+00   1.56131392943021E-14   1.98545071044472E-17   1.56329938014065E-14
      2.00741611508899E-13   8.00000000000000E-02   8.00000000000000E-02   0.00000000000000E+00   0.00000000000000E+00
      1.55714402859933E-14   1.98607118029446E-17   1.55913009977963E-14   1.31437749056735E-13   0.00000000000000E+00
      0.00000000000000E+00   0.00000000000000E+00   0.00000000000000E+00  -1.35840810639472E-15  -7.40035701394896E-15
     -8.75876512034368E-15  -3.03149346903351E-13   0.00000000000000E+00   0.00000000000000E+00   0.00000000000000E+00
      0.00000000000000E+00  -8.07358907311125E-15  -4.57383577090644E-14  -5.38119467821757E-14  -1.83613230882210E-13
      8.00000000000000E-02   8.00000000000000E-02   0.00000000000000E+00   0.00000000000000E+00   1.56742418761642E-14
      1.98604675712289E-17   1.56941023437354E-14   7.97997252552064E-14
      2.00000000000000E-01
      1.60000000000000E-01   1.60000000000000E-01   0.00000000000000E+00   0.00000000000000E+00   2.21244507255766E-14
      2.06856334191946E-17   2.21451363589958E-14   8.08744142271144E-14   1.60000000000000E-01   1.60000000000000E-01
      0.00000000000000E+00   0.00000000000000E+00   2.21036056157209E-14   2.06641218033462E-17   2.21242697375242E-14
      2.05797936451975E-13   1.60000000000000E-01   1.60000000000000E-01   0.00000000000000E+00   0.00000000000000E+00
      2.20587205539915E-14   2.06683934395178E-17   2.20793889474310E-14   1.37713795528296E-13   0.00000000000000E+00
      0.00000000000000E+00   0.00000000000000E+00   0.00000000000000E+00  -1.41351271283928E-15  -9.52825746702113E-15
     -1.09417701798604E-14  -3.26539066403710E-13   0.00000000000000E+00   0.00000000000000E+00   0.00000000000000E+00
      0.00000000000000E+00  -8.46534510144687E-15  -6.91318760561164E-14  -7.75972211575633E-14  -1.84162035895519E-13
      1.60000000000000E-01   1.60000000000000E-01   0.00000000000000E+00   0.00000000000000E+00   2.21695114202416E-14
      2.06848732310423E-17   2.21901962934726E-14   8.63149560918463E-14
      3.00000000000000E-01
      2.40000000000000E-01   2.40000000000000E-01   0.00000000000000E+00   0.00000000000000E+00   2.68724774974479E-14
      2.07254326571823E-17   2.68932029301051E-14   8.65570893600158E-14   2.40000000000000E-01   2.40000000000000E-01
      0.00000000000000E+00   0.00000000000000E+00   2.68510471351894E-14   2.07519376686379E-17   2.68717990728580E-14
      2.10421511287885E-13   2.40000000000000E-01   2.40000000000000E-01   0.00000000000000E+00   0.00000000000000E+00
      2.68048648669745E-14   2.07388136306206E-17   2.68256036806051E-14   1.43539656259131E-13   0.00000000000000E+00
      0.00000000000000E+00   0.00000000000000E+00   0.00000000000000E+00  -1.41515430440439E-15  -1.17113888925079E-14
     -1.31265431969123E-14  -3.48188057416867E-13   0.00000000000000E+00   0.00000000000000E+00   0.00000000000000E+00
      0.00000000000000E+00  -8.50791053336548E-15  -8.58957295567019E-14  -9.44036400900674E-14  -1.84708635548635E-13
      2.40000000000000E-01   2.40000000000000E-01   0.00000000000000E+00   0.00000000000000E+00   2.69188527975688E-14
      2.07248058427734E-17   2.69395776034116E-14   9.23784360584737E-14
      4.00000000000000E-01
      3.20000000000000E-01   3.20000000000000E-01   0.00000000000000E+00   0.00000000000000E+00   3.16249104653396E-14
      2.07292690203195E-17   3.16456397343599E-14   9.19805676620605E-14   3.20000000000000E-01   3.20000000000000E-01
      0.00000000000000E+00   0.00000000000000E+00   3.16029685490969E-14   2.07354368086817E-17   3.16237039859055E-14
      2.14778478105206E-13   3.20000000000000E-01   3.20000000000000E-01   0.00000000000000E+00   0.00000000000000E+00
      3.15557025453139E-14   2.07525186492310E-17   3.15764550639631E-14   1.49082002524078E-13   0.00000000000000E+00
      0.00000000000000E+00   0.00000000000000E+00   0.00000000000000E+00  -1.41521860896477E-15  -1.55465163871908E-14
     -1.69617349961556E-14  -3.68734633511932E-13   0.00000000000000E+00   0.00000000000000E+00   0.00000000000000E+00
      0.00000000000000E+00  -8.53448153019777E-15  -1.01042738901413E-13  -1.09577220431611E-13  -1.85253581851508E-13
      3.20000000000000E-01   3.20000000000000E-01   0.00000000000000E+00   0.00000000000000E+00   3.16724273366014E-14
      2.07293069363502E-17   3.16931566435377E-14   9.81471670720875E-14
      5.00000000000000E-01
      4.00000000000000E-01   4.00000000000000E-01   0.00000000000000E+00   0.00000000000000E+00   3.61410528245457E-14
      2.07308224507265E-17   3.61617836469965E-14   9.71775405564152E-14   4.00000000000000E-01   4.00000000000000E-01
      0.00000000000000E+00   0.00000000000000E+00   3.61186553293906E-14   2.06983050570024E-17   3.61393536344477E-14
      2.18912396353276E-13   4.00000000000000E-01   4.00000000000000E-01   0.00000000000000E+00   0.00000000000000E+00
      3.60704003191114E-14   2.07190398226698E-17   3.60911193589341E-14   1.54378494227579E-13   0.00000000000000E+00
      0.00000000000000E+00   0.00000000000000E+00   0.00000000000000E+00  -1.41524417535508E-15  -1.94765523868888E-14
     -2.08917965622438E-14  -3.88326411652600E-13   0.00000000000000E+00   0.00000000000000E+00   0.00000000000000E+00
      0.00000000000000E+00  -8.56023311857259E-15  -1.15150551158676E-13  -1.23710784277248E-13  -1.85796840694616E-13
      4.00000000000000E-01   4.00000000000000E-01   0.00000000000000E+00   0.00000000000000E+00   3.61895927343677E-14
      2.07314647462497E-17   3.62103241991140E-14   1.03654821209941E-13
      6.00000000000000E-01
      4.80000000000000E-01   4.80000000000000E-01   0.00000000000000E+00   0.00000000000000E+00   3.96929414644069E-14
      2.07329184959604E-17   3.97136743829029E-14   1.02133059118612E-13   4.80000000000000E-01   4.80000000000000E-01
      0.00000000000000E+00   0.00000000000000E+00   3.96701347334375E-14   2.06903358303875E-17   3.96908250692679E-14
      2.22817697771777E-13   4.80000000000000E-01   4.80000000000000E-01   0.00000000000000E+00   0.00000000000000E+00
      3.96210417750480E-14   2.07268643588186E-17   3.96417686394068E-14   1.59414353505084E-13   0.00000000000000E+00
      0.00000000000000E+00   0.00000000000000E+00   0.00000000000000E+00  -1.41527499545778E-15  -2.16212407070109E-14
     -2.30365157024686E-14  -4.06911009669418E-13   0.00000000000000E+00   0.00000000000000E+00   0.00000000000000E+00
      0.00000000000000E+00  -8.58584996178758E-15  -1.27186997697810E-13  -1.35772847659597E-13  -1.86338355181632E-13
      4.80000000000000E-01   4.80000000000000E-01   0.00000000000000E+00   0.00000000000000E+00   3.97423625463412E-14
      2.07327241473566E-17   3.97630952704886E-14   1.08884254455576E-13
      7.00000000000000E-01
      5.60000000000000E-01   5.60000000000000E-01   0.00000000000000E+00   0.00000000000000E+00   4.30881545580646E-14
      2.07360491606849E-17   4.31088906072253E-14   1.06794501149857E-13   5.60000000000000E-01   5.60000000000000E-01
      0.00000000000000E+00   0.00000000000000E+00   4.30653050762852E-14   2.05098250671094E-17   4.30858149013523E-14
      2.26450562953034E-13   5.60000000000000E-01   5.60000000000000E-01   0.00000000000000E+00   0.00000000000000E+00
      4.30155867985299E-14   2.06381085150490E-17   4.30362249070449E-14   1.64133733479308E-13   0.00000000000000E+00
      0.00000000000000E+00   0.00000000000000E+00   0.00000000000000E+00  -1.41530398869099E-15  -2.27747929275302E-14
     -2.41900969162212E-14  -4.24279012598062E-13   0.00000000000000E+00   0.00000000000000E+00   0.00000000000000E+00
      0.00000000000000E+00  -8.61135303865980E-15  -1.39588353263717E-13  -1.48199706302377E-13  -1.86878106057079E-13
      5.60000000000000E-01   5.60000000000000E-01   0.00000000000000E+00   0.00000000000000E+00   4.31381376554551E-14
      2.07351475210481E-17   4.31588728029761E-14   1.13778321072936E-13
      8.00000000000000E-01
      6.40000000000000E-01   6.40000000000000E-01   0.00000000000000E+00   0.00000000000000E+00   4.63634857965599E-14
      2.07373319480759E-17   4.63842231285080E-14   1.11072462510541E-13   6.40000000000000E-01   6.40000000000000E-01
      0.00000000000000E+00   0.00000000000000E+00   4.63403446492431E-14   1.86718988480546E-17   4.63590165480912E-14
      2.29727720506291E-13   6.40000000000000E-01   6.40000000000000E-01   0.00000000000000E+00   0.00000000000000E+00
      4.62888083315956E-14   1.99436158284406E-17   4.63087519474241E-14   1.68440865073095E-13   0.00000000000000E+00
      0.00000000000000E+00   0.00000000000000E+00   0.00000000000000E+00  -1.41532898884150E-15  -2.37674173496207E-14
     -2.51827463384622E-14  -4.40067566326887E-13   0.00000000000000E+00   0.00000000000000E+00   0.00000000000000E+00
      0.00000000000000E+00  -8.63674153261819E-15  -1.51668822671482E-13  -1.60305564204100E-13  -1.87416042652311E-13
      6.40000000000000E-01   6.40000000000000E-01   0.00000000000000E+00   0.00000000000000E+00   4.64155894731441E-14
      2.07294453947940E-17   4.64363189185389E-14   1.18242560889274E-13
      9.00000000000000E-01
      7.20000000000000E-01   7.20000000000000E-01   0.00000000000000E+00   0.00000000000000E+00   4.93793417978265E-14
      2.07406006679723E-17   4.94000823984945E-14   1.14884753767084E-13   7.20000000000000E-01   7.20000000000000E-01
      0.00000000000000E+00   0.00000000000000E+00   4.93702866860476E-14   1.60922065372579E-17   4.93863788925849E-14
      2.32565144180715E-13   7.20000000000000E-01   7.20000000000000E-01   0.00000000000000E+00   0.00000000000000E+00
      4.93189108434889E-14   1.89884846806754E-17   4.93378993281696E-14   1.72248063505208E-13   0.00000000000000E+00
      0.00000000000000E+00   0.00000000000000E+00   0.00000000000000E+00  -1.41534942508364E-15  -2.52078274739533E-14
     -2.66231768990370E-14  -4.53940711910676E-13   0.00000000000000E+00   0.00000000000000E+00   0.00000000000000E+00
      0.00000000000000E+00  -8.66201880973053E-15  -1.62303911806933E-13  -1.70965930616664E-13  -1.87952211223920E-13
      7.20000000000000E-01   7.20000000000000E-01   0.00000000000000E+00   0.00000000000000E+00   4.94440299743151E-14
      2.07169221362923E-17   4.94647468964514E-14   1.22194961681594E-13
      1.00000000000000E+00
      8.00000000000000E-01   8.00000000000000E-01   0.00000000000000E+00   0.00000000000000E+00   5.29850121828297E-14
      2.07436456594886E-17   5.30057558284892E-14   1.18247001726341E-13   8.00000000000000E-01   8.00000000000000E-01
      0.00000000000000E+00   0.00000000000000E+00   5.29613244348939E-14   1.89513292322001E-17   5.29802757641261E-14
      2.34965182091109E-13   8.00000000000000E-01   8.00000000000000E-01   0.00000000000000E+00   0.00000000000000E+00
      5.29112158388091E-14   1.99530236666471E-17   5.29311688624757E-14   1.75572028127953E-13   0.00000000000000E+00
      0.00000000000000E+00   0.00000000000000E+00   0.00000000000000E+00  -1.41536577381998E-15  -2.87741219611890E-14
     -3.01894877350089E-14  -4.65958415920779E-13   0.00000000000000E+00   0.00000000000000E+00   0.00000000000000E+00
      0.00000000000000E+00  -8.68718598984424E-15  -1.73097237944784E-13  -1.81784423934628E-13  -1.88486614472329E-13
      8.00000000000000E-01   8.00000000000000E-01   0.00000000000000E+00   0.00000000000000E+00   5.30359762017862E-14
      2.07350127597330E-17   5.30567112145460E-14   1.25660818447704E-13
      0.00000000000000E+00
      8.00000000000000E-01   8.00000000000000E-01   0.00000000000000E+00   0.00000000000000E+00   5.29851252012607E-14
      2.07442967315572E-17   5.30058694979922E-14   1.18247001726344E-13   8.00000000000000E-01   8.00000000000000E-01
      0.00000000000000E+00   0.00000000000000E+00   5.29617489028544E-14   2.07510252589261E-17   5.29824999281133E-14
      2.34965182091109E-13   8.00000000000000E-01   8.00000000000000E-01   0.00000000000000E+00   0.00000000000000E+00
      5.29107778463408E-14   2.07459411835621E-17   5.29315237875243E-14   1.75572028127954E-13   0.00000000000000E+00
      0.00000000000000E+00   0.00000000000000E+00   0.00000000000000E+00  -1.41536577382221E-15  -2.87741230467867E-14
     -3.01894888206089E-14  -4.65958415920784E-13   0.00000000000000E+00   0.00000000000000E+00   0.00000000000000E+00
      0.00000000000000E+00  -8.68718598984430E-15  -1.73099838880497E-13  -1.81787024870342E-13  -1.88486614472330E-13
      8.00000000000000E-01   8.00000000000000E-01   0.00000000000000E+00   0.00000000000000E+00   5.30358767077507E-14
      2.07437695698430E-17   5.30566204773206E-14   1.25660818447706E-13
      1.00000000000000E-01
      8.00000000000000E-01   8.00000000000000E-01   0.00000000000000E+00   0.00000000000000E+00   7.51649549556635E-14
      2.07435890933613E-17   7.51856985447568E-14   1.23341459879587E-13   8.00000000000000E-01   8.00000000000000E-01
      0.00000000000000E+00   0.00000000000000E+00   7.51388135534341E-14  -2.12411744785028E-13  -1.37272931231594E-13
      2.27848191862760E-13   8.00000000000000E-01   8.00000000000000E-01   0.00000000000000E+00   0.00000000000000E+00
      7.50810148804534E-14  -6.68631399167341E-14   8.21787496371924E-15   1.76761983968208E-13   0.00000000000000E+00
      0.00000000000000E+00   0.00000000000000E+00   0.00000000000000E+00  -1.41536547590128E-15  -2.85357905338525E-14
     -2.99511560097538E-14  -4.65800279619361E-13  -7.00000000000000E-01  -7.00000000000000E-01   0.00000000000000E+00
      0.00000000000000E+00  -8.90550042816775E-15   1.83497464925298E-14   9.44424606436208E-15  -1.93145083491654E-13
      8.00000000000000E-01   8.00000000000000E-01   0.00000000000000E+00   0.00000000000000E+00   7.52200880062315E-14
     -8.43820337722429E-16   7.43762676685091E-14   1.30993727400457E-13
      2.00000000000000E-01
      8.00000000000000E-01   8.00000000000000E-01   0.00000000000000E+00   0.00000000000000E+00   9.45542044716879E-14
      2.07444514255154E-17   9.45749489231134E-14   1.27694104709269E-13   8.00000000000000E-01   8.00000000000000E-01
      0.00000000000000E+00   0.00000000000000E+00   9.45175467939405E-14   1.96809854992360E-17   9.45372277794397E-14
      2.21972666831852E-13   8.00000000000000E-01   8.00000000000000E-01   0.00000000000000E+00   0.00000000000000E+00
      9.44625926126523E-14   2.03628968352958E-17   9.44829555094876E-14   1.77439411931030E-13   0.00000000000000E+00
      0.00000000000000E+00   0.00000000000000E+00   0.00000000000000E+00  -1.41536313466439E-15  -2.96279778143348E-14
     -3.10433409489992E-14  -4.64561423990689E-13  -1.40000000000000E+00  -1.40000000000000E+00   0.00000000000000E+00
      0.00000000000000E+00  -9.12486036674883E-15  -3.38073213747028E-13  -3.47198074113776E-13  -1.97865452690738E-13
      8.00000000000000E-01   8.00000000000000E-01   0.00000000000000E+00   0.00000000000000E+00   9.46255417732798E-14
      2.07410774548763E-17   9.46462828507346E-14   1.35320693209277E-13
      3.00000000000000E-01
      8.00000000000000E-01   8.00000000000000E-01   0.00000000000000E+00   0.00000000000000E+00   1.14450933550514E-13
      2.07445966643935E-17   1.14471678147179E-13   1.30474398880861E-13   8.00000000000000E-01   8.00000000000000E-01
      0.00000000000000E+00   0.00000000000000E+00   1.14420290520878E-13   2.07608938155048E-17   1.14441051414694E-13
      2.16025714367061E-13   8.00000000000000E-01   8.00000000000000E-01   0.00000000000000E+00   0.00000000000000E+00
      1.14357391121069E-13   2.07329516201448E-17   1.14378124072689E-13   1.76827009161109E-13   0.00000000000000E+00
      0.00000000000000E+00   0.00000000000000E+00   0.00000000000000E+00  -1.41535177924011E-15  -3.82475419328324E-14
     -3.96628937120725E-14  -4.58625185179992E-13  -2.10000000000000E+00  -2.10000000000000E+00   0.00000000000000E+00
      0.00000000000000E+00  -9.35139088864270E-15  -4.08856659047626E-13  -4.18208049936269E-13  -2.02781210370007E-13
      8.00000000000000E-01   8.00000000000000E-01   0.00000000000000E+00   0.00000000000000E+00   1.14559346795546E-13
      2.07432182336239E-17   1.14580090013780E-13   1.38079273140971E-13
      4.00000000000000E-01
      8.00000000000000E-01   8.00000000000000E-01   0.00000000000000E+00   0.00000000000000E+00   1.27363173176339E-13
      2.07430939221676E-17   1.27383916270261E-13   1.31922863333081E-13   8.00000000000000E-01   8.00000000000000E-01
      0.00000000000000E+00   0.00000000000000E+00   1.27331969388359E-13   2.07635549583621E-17   1.27352732943317E-13
      2.09907410765435E-13   8.00000000000000E-01   8.00000000000000E-01   0.00000000000000E+00   0.00000000000000E+00
      1.27266330651457E-13   2.07634238526094E-17   1.27287094075310E-13   1.75214486769214E-13   0.00000000000000E+00
      0.00000000000000E+00   0.00000000000000E+00   0.00000000000000E+00  -1.41533207059397E-15  -4.19343281985167E-14
     -4.33496602691107E-14  -4.48224661256558E-13  -2.80000000000000E+00  -2.80000000000000E+00   0.00000000000000E+00
      0.00000000000000E+00  -9.60478885420131E-15  -4.56529641079457E-13  -4.66134429933658E-13  -2.08329659175286E-13
      8.00000000000000E-01   8.00000000000000E-01   0.00000000000000E+00   0.00000000000000E+00   1.27439602433413E-13
      2.07444804683243E-17   1.27460346913881E-13   1.39509559564115E-13
      5.00000000000000E-01
      8.00000000000000E-01   8.00000000000000E-01   0.00000000000000E+00   0.00000000000000E+00   1.30318756551815E-13
      2.07423383513379E-17   1.30339498890167E-13   1.33041040673722E-13   8.00000000000000E-01   8.00000000000000E-01
      0.00000000000000E+00   0.00000000000000E+00   1.30286889255090E-13   1.88186979705060E-17   1.30305707953060E-13
      2.04539817232156E-13   8.00000000000000E-01   8.00000000000000E-01   0.00000000000000E+00   0.00000000000000E+00
      1.30218747701715E-13   2.00099922733513E-17   1.30238757693989E-13   1.73702198385837E-13   0.00000000000000E+00
      0.00000000000000E+00   0.00000000000000E+00   0.00000000000000E+00  -1.41531000992997E-15  -3.82628528488336E-14
     -3.96781628587636E-14  -4.36775669522508E-13  -3.50000000000000E+00  -3.50000000000000E+00   0.00000000000000E+00
      0.00000000000000E+00  -9.91162744251625E-15  -4.71708663370334E-13  -4.81620290812850E-13  -2.15119386520371E-13
      8.00000000000000E-01   8.00000000000000E-01   0.00000000000000E+00   0.00000000000000E+00   1.30393751158272E-13
      2.07379761274028E-17   1.30414489134399E-13   1.40611999751162E-13
      6.00000000000000E-01
      8.00000000000000E-01   8.00000000000000E-01   0.00000000000000E+00   0.00000000000000E+00   1.31328867110575E-13
      2.07436201046657E-17   1.31349610730680E-13   1.34034154822382E-13   8.00000000000000E-01   8.00000000000000E-01
      0.00000000000000E+00   0.00000000000000E+00   1.31295786021660E-13   1.79288655130652E-17   1.31313714887173E-13
      2.00331163498882E-13   8.00000000000000E-01   8.00000000000000E-01   0.00000000000000E+00   0.00000000000000E+00
      1.31225415473644E-13   1.96695721174401E-17   1.31245085045761E-13   1.72585165181795E-13   0.00000000000000E+00
      0.00000000000000E+00   0.00000000000000E+00   0.00000000000000E+00  -1.41528676809120E-15  -3.53350441844793E-14
     -3.67503309525705E-14  -4.24955061271573E-13  -4.20000000000000E+00  -4.20000000000000E+00   0.00000000000000E+00
      0.00000000000000E+00  -1.02894030791511E-14  -4.78295019360680E-13  -4.88584422439831E-13  -2.23587854987601E-13
      8.00000000000000E-01   8.00000000000000E-01   0.00000000000000E+00   0.00000000000000E+00   1.31405607053282E-13
      2.07356755047009E-17   1.31426342728787E-13   1.41592432756119E-13
      7.00000000000000E-01
      8.00000000000000E-01   8.00000000000000E-01   0.00000000000000E+00   0.00000000000000E+00   1.31882251724823E-13
      2.07442595009335E-17   1.31902995984324E-13   1.34945536491309E-13   8.00000000000000E-01   8.00000000000000E-01
      0.00000000000000E+00   0.00000000000000E+00   1.31848537328454E-13   2.04509442459893E-17   1.31868988272700E-13
      1.97525838608033E-13   8.00000000000000E-01   8.00000000000000E-01   0.00000000000000E+00   0.00000000000000E+00
      1.31775531664897E-13   2.06308368133377E-17   1.31796162501710E-13   1.71988581696669E-13   0.00000000000000E+00
      0.00000000000000E+00   0.00000000000000E+00   0.00000000000000E+00  -1.41526267409444E-15  -3.33577079728484E-14
     -3.47729706469428E-14  -4.12913235529768E-13  -4.90000000000000E+00  -4.90000000000000E+00   0.00000000000000E+00
      0.00000000000000E+00  -1.07483365713310E-14  -4.82028875367133E-13  -4.92777211938464E-13  -2.34041453009589E-13
      8.00000000000000E-01   8.00000000000000E-01   0.00000000000000E+00   0.00000000000000E+00   1.31961292149258E-13
      2.07436774154640E-17   1.31982035826673E-13   1.42494731743348E-13
      8.00000000000000E-01
      8.00000000000000E-01   8.00000000000000E-01   0.00000000000000E+00   0.00000000000000E+00   1.32364352920259E-13
      2.07444848128298E-17   1.32385097405071E-13   1.35794447978036E-13   8.00000000000000E-01   8.00000000000000E-01
      0.00000000000000E+00   0.00000000000000E+00   1.32328528354520E-13   2.07392815055723E-17   1.32349267636026E-13
      1.96098264590082E-13   8.00000000000000E-01   8.00000000000000E-01   0.00000000000000E+00   0.00000000000000E+00
      1.32251504361690E-13   2.07471112944887E-17   1.32272251472985E-13   1.71913682219312E-13   0.00000000000000E+00
      0.00000000000000E+00   0.00000000000000E+00   0.00000000000000E+00  -1.41523795441487E-15  -3.19077430120481E-14
     -3.33229809664630E-14  -4.00711727691645E-13  -5.60000000000000E+00  -5.60000000000000E+00   0.00000000000000E+00
      0.00000000000000E+00  -1.12819980197478E-14  -4.84869569206906E-13  -4.96151567226653E-13  -2.46432736082938E-13
      8.00000000000000E-01   8.00000000000000E-01   0.00000000000000E+00   0.00000000000000E+00   1.32447187176385E-13
      2.07445026493415E-17   1.32467931679034E-13   1.43338068987155E-13
      9.00000000000000E-01
      8.00000000000000E-01   8.00000000000000E-01   0.00000000000000E+00   0.00000000000000E+00   1.32853249207508E-13
      2.07447006141604E-17   1.32873993908123E-13   1.36589488698567E-13   8.00000000000000E-01   8.00000000000000E-01
      0.00000000000000E+00   0.00000000000000E+00   1.32814735690763E-13   2.07409641464217E-17   1.32835476654909E-13
      1.95703360909990E-13   8.00000000000000E-01   8.00000000000000E-01   0.00000000000000E+00   0.00000000000000E+00
      1.32732927048804E-13   2.07423670995646E-17   1.32753669415903E-13   1.72225740806899E-13   0.00000000000000E+00
      0.00000000000000E+00   0.00000000000000E+00   0.00000000000000E+00  -1.41521281895935E-15  -3.05955281609083E-14
     -3.20107409798676E-14  -3.88362598614332E-13  -6.30000000000000E+00  -6.30000000000000E+00   0.00000000000000E+00
      0.00000000000000E+00  -1.18657171268883E-14  -4.87548205621084E-13  -4.99413922747972E-13  -2.60286187369524E-13
      8.00000000000000E-01   8.00000000000000E-01   0.00000000000000E+00   0.00000000000000E+00   1.32940778541821E-13
      2.07452070835660E-17   1.32961523748905E-13   1.44130195568399E-13
      1.00000000000000E+00
      8.00000000000000E-01   8.00000000000000E-01   0.00000000000000E+00   0.00000000000000E+00   1.33440459380625E-13
      2.07452146240553E-17   1.33461204595249E-13   1.37334168095130E-13   8.00000000000000E-01   8.00000000000000E-01
      0.00000000000000E+00   0.00000000000000E+00   1.33400100496748E-13   2.07447325368657E-17   1.33420845229284E-13
      1.95897045479680E-13   8.00000000000000E-01   8.00000000000000E-01   0.00000000000000E+00   0.00000000000000E+00
      1.33314162112460E-13   2.07436099544699E-17   1.33334905722414E-13   1.72746743288921E-13   0.00000000000000E+00
      0.00000000000000E+00   0.00000000000000E+00   0.00000000000000E+00  -1.41518747956674E-15  -2.85142440243492E-14
     -2.99294315039160E-14  -3.75856818326354E-13  -7.00000000000000E+00  -7.00000000000000E+00   0.00000000000000E+00
      0.00000000000000E+00  -1.24710051693701E-14  -4.91369315945867E-13  -5.03840321115237E-13  -2.74994671853818E-13
      8.00000000000000E-01   8.00000000000000E-01   0.00000000000000E+00   0.00000000000000E+00   1.33532052315092E-13
      2.07447571135572E-17   1.33552797072205E-13   1.44873533316443E-13
}
