DF-ISE text

Info {
  version   = 1.0
  type      = xyplot
  datasets  = [
    "time"
    "Ntop_0_1 OuterVoltage" "Ntop_0_1 InnerVoltage" "Ntop_0_1 QuasiFermiPotential" "Ntop_0_1 DisplacementCurrent" "Ntop_0_1 eCurrent"
    "Ntop_0_1 hCurrent" "Ntop_0_1 TotalCurrent" "Ntop_0_1 Charge" "Ntop_1_0 OuterVoltage" "Ntop_1_0 InnerVoltage"
    "Ntop_1_0 QuasiFermiPotential" "Ntop_1_0 DisplacementCurrent" "Ntop_1_0 eCurrent" "Ntop_1_0 hCurrent" "Ntop_1_0 TotalCurrent"
    "Ntop_1_0 Charge" "Ntop_1_1 OuterVoltage" "Ntop_1_1 InnerVoltage" "Ntop_1_1 QuasiFermiPotential" "Ntop_1_1 DisplacementCurrent"
    "Ntop_1_1 eCurrent" "Ntop_1_1 hCurrent" "Ntop_1_1 TotalCurrent" "Ntop_1_1 Charge" "Ptop OuterVoltage"
    "Ptop InnerVoltage" "Ptop QuasiFermiPotential" "Ptop DisplacementCurrent" "Ptop eCurrent" "Ptop hCurrent"
    "Ptop TotalCurrent" "Ptop Charge" "Pbot OuterVoltage" "Pbot InnerVoltage" "Pbot QuasiFermiPotential"
    "Pbot DisplacementCurrent" "Pbot eCurrent" "Pbot hCurrent" "Pbot TotalCurrent" "Pbot Charge"
    "Ntop_0_0 OuterVoltage" "Ntop_0_0 InnerVoltage" "Ntop_0_0 QuasiFermiPotential" "Ntop_0_0 DisplacementCurrent" "Ntop_0_0 eCurrent"
    "Ntop_0_0 hCurrent" "Ntop_0_0 TotalCurrent" "Ntop_0_0 Charge" ]
  functions = [
    Time
    OuterVoltage InnerVoltage QuasiFermiPotential DisplacementCurrent eCurrent
    hCurrent TotalCurrent Charge OuterVoltage InnerVoltage
    QuasiFermiPotential DisplacementCurrent eCurrent hCurrent TotalCurrent
    Charge OuterVoltage InnerVoltage QuasiFermiPotential DisplacementCurrent
    eCurrent hCurrent TotalCurrent Charge OuterVoltage
    InnerVoltage QuasiFermiPotential DisplacementCurrent eCurrent hCurrent
    TotalCurrent Charge OuterVoltage InnerVoltage QuasiFermiPotential
    DisplacementCurrent eCurrent hCurrent TotalCurrent Charge
    OuterVoltage InnerVoltage QuasiFermiPotential DisplacementCurrent eCurrent
    hCurrent TotalCurrent Charge ]
}

Data {
      0.00000000000000E+00
      0.00000000000000E+00   0.00000000000000E+00   0.00000000000000E+00   0.00000000000000E+00   1.37281213276762E-21
      4.88210887332663E-19   4.89583699465431E-19   9.39116828084758E-14   0.00000000000000E+00   0.00000000000000E+00
      0.00000000000000E+00   0.00000000000000E+00  -1.38404354594003E-21   1.25153409796141E-18   1.25015005441547E-18
      1.37039352312618E-13   0.00000000000000E+00   0.00000000000000E+00   0.00000000000000E+00   0.00000000000000E+00
      1.50310242091737E-22   9.21870486468587E-19   9.22020796710679E-19   1.24316953688740E-13   0.00000000000000E+00
      0.00000000000000E+00   0.00000000000000E+00   0.00000000000000E+00  -1.00323670321708E-25   3.83764113077705E-20
      3.83763109841002E-20  -2.76537046582833E-13   0.00000000000000E+00   0.00000000000000E+00   0.00000000000000E+00
      0.00000000000000E+00  -4.40901930642777E-29  -3.35264036730387E-18  -3.35264036734796E-18  -1.83060827314923E-13
      0.00000000000000E+00   0.00000000000000E+00   0.00000000000000E+00   0.00000000000000E+00  -1.38978507165176E-22
      6.52648484279420E-19   6.52509505772254E-19   1.04329885087927E-13
      0.00000000000000E+00
      0.00000000000000E+00   0.00000000000000E+00   0.00000000000000E+00   0.00000000000000E+00   3.74911993089916E-22
     -1.04814259516539E-17  -1.04810510396608E-17   9.39116829539739E-14   0.00000000000000E+00   0.00000000000000E+00
      0.00000000000000E+00   0.00000000000000E+00   2.04079206575529E-21  -1.04874092488212E-17  -1.04853684567555E-17
      1.37039352458115E-13   0.00000000000000E+00   0.00000000000000E+00   0.00000000000000E+00   0.00000000000000E+00
     -1.36347834172062E-21  -1.04851663827690E-17  -1.04865298611107E-17   1.24316953834238E-13   0.00000000000000E+00
      0.00000000000000E+00   0.00000000000000E+00   0.00000000000000E+00   3.87059809906495E-25   4.19100510593103E-17
      4.19100514463701E-17  -2.76537047164827E-13   0.00000000000000E+00   0.00000000000000E+00   0.00000000000000E+00
      0.00000000000000E+00  -9.07844873984238E-29   2.33909111393613E-20   2.33909110485768E-20  -1.83060827314923E-13
      0.00000000000000E+00   0.00000000000000E+00   0.00000000000000E+00   0.00000000000000E+00  -1.05261254607533E-21
     -1.04794403873471E-17  -1.04804929998932E-17   1.04329885233426E-13
      1.00000000000000E-01
      8.00000000000000E-02   8.00000000000000E-02   0.00000000000000E+00   0.00000000000000E+00   1.72573210709409E-14
      1.98582941233653E-17   1.72771793650642E-14   1.00348409664141E-13   8.00000000000000E-02   8.00000000000000E-02
      0.00000000000000E+00   0.00000000000000E+00   1.72524210352017E-14   1.98410400776219E-17   1.72722620752793E-14
      1.43939551395432E-13   8.00000000000000E-02   8.00000000000000E-02   0.00000000000000E+00   0.00000000000000E+00
      1.72418588546015E-14   1.98518566073823E-17   1.72617107112089E-14   1.31428745622468E-13   0.00000000000000E+00
      0.00000000000000E+00   0.00000000000000E+00   0.00000000000000E+00  -1.35839716444341E-15  -1.00308041438803E-14
     -1.13892013083237E-14  -3.03149354458098E-13   0.00000000000000E+00   0.00000000000000E+00   0.00000000000000E+00
      0.00000000000000E+00  -8.07358834680063E-15  -4.96363252788995E-14  -5.77099136257001E-14  -1.83613216587067E-13
      8.00000000000000E-02   8.00000000000000E-02   0.00000000000000E+00   0.00000000000000E+00   1.72681108341014E-14
      1.98519483701538E-17   1.72879627824715E-14   1.11045864363121E-13
      2.00000000000000E-01
      1.60000000000000E-01   1.60000000000000E-01   0.00000000000000E+00   0.00000000000000E+00   2.38230256152468E-14
      2.06484612955445E-17   2.38436740765424E-14   1.06002299865686E-13   1.60000000000000E-01   1.60000000000000E-01
      0.00000000000000E+00   0.00000000000000E+00   2.38176614353839E-14   2.06084253040324E-17   2.38382698606879E-14
      1.50054574861036E-13   1.60000000000000E-01   1.60000000000000E-01   0.00000000000000E+00   0.00000000000000E+00
      2.38061895872544E-14   2.06284579199077E-17   2.38268180451743E-14   1.37699474937732E-13   0.00000000000000E+00
      0.00000000000000E+00   0.00000000000000E+00   0.00000000000000E+00  -1.41350143227950E-15  -1.23824821907749E-14
     -1.37959836230544E-14  -3.26539083612959E-13   0.00000000000000E+00   0.00000000000000E+00   0.00000000000000E+00
      0.00000000000000E+00  -8.46534400633829E-15  -7.31029867094244E-14  -8.15683307157627E-14  -1.84162012913428E-13
      1.60000000000000E-01   1.60000000000000E-01   0.00000000000000E+00   0.00000000000000E+00   2.38349018811823E-14
      2.06504752301073E-17   2.38555523564124E-14   1.16944746861936E-13
      3.00000000000000E-01
      2.40000000000000E-01   2.40000000000000E-01   0.00000000000000E+00   0.00000000000000E+00   2.85745844785535E-14
      2.07531449119058E-17   2.85953376234654E-14   1.11231533764750E-13   2.40000000000000E-01   2.40000000000000E-01
      0.00000000000000E+00   0.00000000000000E+00   2.85690055764101E-14   2.08090299620868E-17   2.85898146063722E-14
      1.55746822632566E-13   2.40000000000000E-01   2.40000000000000E-01   0.00000000000000E+00   0.00000000000000E+00
      2.85570650680592E-14   2.07952984279362E-17   2.85778603664871E-14   1.43518382496460E-13   0.00000000000000E+00
      0.00000000000000E+00   0.00000000000000E+00   0.00000000000000E+00  -1.41514302014636E-15  -1.46557940432988E-14
     -1.60709370634451E-14  -3.48188093829071E-13   0.00000000000000E+00   0.00000000000000E+00   0.00000000000000E+00
      0.00000000000000E+00  -8.50790888434035E-15  -8.97917945859608E-14  -9.82997034703011E-14  -1.84708600808335E-13
      2.40000000000000E-01   2.40000000000000E-01   0.00000000000000E+00   0.00000000000000E+00   2.85868678283121E-14
      2.07601091097864E-17   2.86076279374219E-14   1.22399955743632E-13
      4.00000000000000E-01
      3.20000000000000E-01   3.20000000000000E-01   0.00000000000000E+00   0.00000000000000E+00   3.33274503008434E-14
      2.06849953869770E-17   3.33481352962304E-14   1.16190924608708E-13   3.20000000000000E-01   3.20000000000000E-01
      0.00000000000000E+00   0.00000000000000E+00   3.33217061205973E-14   2.06453850885925E-17   3.33423515056858E-14
      1.61173292323235E-13   3.20000000000000E-01   3.20000000000000E-01   0.00000000000000E+00   0.00000000000000E+00
      3.33093715251867E-14   2.06617916891612E-17   3.33300333168759E-14   1.49052273323560E-13   0.00000000000000E+00
      0.00000000000000E+00   0.00000000000000E+00   0.00000000000000E+00  -1.41520732506305E-15  -1.85650756329053E-14
     -1.99802829579684E-14  -3.68734709778456E-13   0.00000000000000E+00   0.00000000000000E+00   0.00000000000000E+00
      0.00000000000000E+00  -8.53447918367652E-15  -1.04866478211518E-13  -1.13400957395195E-13  -1.85253532347797E-13
      3.20000000000000E-01   3.20000000000000E-01   0.00000000000000E+00   0.00000000000000E+00   3.33400517025175E-14
      2.06685318531514E-17   3.33607202343706E-14   1.27571751870746E-13
      5.00000000000000E-01
      4.00000000000000E-01   4.00000000000000E-01   0.00000000000000E+00   0.00000000000000E+00   3.78438146706763E-14
      2.07274725198518E-17   3.78645421431961E-14   1.20915921033417E-13   4.00000000000000E-01   4.00000000000000E-01
      0.00000000000000E+00   0.00000000000000E+00   3.78379425854047E-14   2.07226759586119E-17   3.78586652613633E-14
      1.66372728922963E-13   4.00000000000000E-01   4.00000000000000E-01   0.00000000000000E+00   0.00000000000000E+00
      3.78252878664157E-14   2.07336049057714E-17   3.78460214713215E-14   1.54339235294110E-13   0.00000000000000E+00
      0.00000000000000E+00   0.00000000000000E+00   0.00000000000000E+00  -1.41523289183279E-15  -2.25647317144744E-14
     -2.39799646063072E-14  -3.88326575608220E-13   0.00000000000000E+00   0.00000000000000E+00   0.00000000000000E+00
      0.00000000000000E+00  -8.56023000777563E-15  -1.18906342345259E-13  -1.27466572353035E-13  -1.85796774981252E-13
      4.00000000000000E-01   4.00000000000000E-01   0.00000000000000E+00   0.00000000000000E+00   3.78565984391572E-14
      2.07096443039177E-17   3.78773080834611E-14   1.32495465338971E-13
      6.00000000000000E-01
      4.80000000000000E-01   4.80000000000000E-01   0.00000000000000E+00   0.00000000000000E+00   4.13959328891330E-14
      2.06504097156333E-17   4.14165832988487E-14   1.25392892115770E-13   4.80000000000000E-01   4.80000000000000E-01
      0.00000000000000E+00   0.00000000000000E+00   4.13900913054280E-14   2.05319481647130E-17   4.14106232535928E-14
      1.71336640289922E-13   4.80000000000000E-01   4.80000000000000E-01   0.00000000000000E+00   0.00000000000000E+00
      4.13771779807507E-14   2.05627823240341E-17   4.13977407630747E-14   1.59365189186180E-13   0.00000000000000E+00
      0.00000000000000E+00   0.00000000000000E+00   0.00000000000000E+00  -1.41526371257441E-15  -2.47774033740810E-14
     -2.61926670866554E-14  -4.06911381046452E-13   0.00000000000000E+00   0.00000000000000E+00   0.00000000000000E+00
      0.00000000000000E+00  -8.58584627184392E-15  -1.30875787841653E-13  -1.39461634113497E-13  -1.86338277144101E-13
      4.80000000000000E-01   4.80000000000000E-01   0.00000000000000E+00   0.00000000000000E+00   4.14087262535171E-14
      2.06276311194259E-17   4.14293538846365E-14   1.37154936598679E-13
      7.00000000000000E-01
      5.60000000000000E-01   5.60000000000000E-01   0.00000000000000E+00   0.00000000000000E+00   4.47912773400840E-14
      2.07056276263136E-17   4.48119829677103E-14   1.29569792474158E-13   5.60000000000000E-01   5.60000000000000E-01
      0.00000000000000E+00   0.00000000000000E+00   4.47857564887714E-14   2.06522194231282E-17   4.48064087081945E-14
      1.76019205433138E-13   5.60000000000000E-01   5.60000000000000E-01   0.00000000000000E+00   0.00000000000000E+00
      4.47726870471129E-14   2.06719806008656E-17   4.47933590277137E-14   1.64075171246076E-13   0.00000000000000E+00
      0.00000000000000E+00   0.00000000000000E+00   0.00000000000000E+00  -1.41529270707502E-15  -2.59975366277556E-14
     -2.74128293348306E-14  -4.24279914998025E-13   0.00000000000000E+00   0.00000000000000E+00   0.00000000000000E+00
      0.00000000000000E+00  -8.61134967694750E-15  -1.43211567618158E-13  -1.51822917295105E-13  -1.86878034892369E-13
      5.60000000000000E-01   5.60000000000000E-01   0.00000000000000E+00   0.00000000000000E+00   4.48033012741051E-14
      2.06946522122215E-17   4.48239959263173E-14   1.41493780737023E-13
      8.00000000000000E-01
      6.40000000000000E-01   6.40000000000000E-01   0.00000000000000E+00   0.00000000000000E+00   4.80652085009862E-14
      2.02873248065124E-17   4.80854958257927E-14   1.33357986985298E-13   6.40000000000000E-01   6.40000000000000E-01
      0.00000000000000E+00   0.00000000000000E+00   4.80589095812211E-14   1.96113518131146E-17   4.80785209330342E-14
      1.80335286118393E-13   6.40000000000000E-01   6.40000000000000E-01   0.00000000000000E+00   0.00000000000000E+00
      4.80458964370419E-14   1.99009209100031E-17   4.80657973579519E-14   1.68374438214328E-13   0.00000000000000E+00
      0.00000000000000E+00   0.00000000000000E+00   0.00000000000000E+00  -1.41531771019376E-15  -2.70509860541134E-14
     -2.84663037643071E-14  -4.40069898365003E-13   0.00000000000000E+00   0.00000000000000E+00   0.00000000000000E+00
      0.00000000000000E+00  -8.63674141283930E-15  -1.55226953872121E-13  -1.63863695284960E-13  -1.87416040161853E-13
      6.40000000000000E-01   6.40000000000000E-01   0.00000000000000E+00   0.00000000000000E+00   4.80800252184295E-14
      2.01597140593602E-17   4.81001849324888E-14   1.45418227208840E-13
      9.00000000000000E-01
      7.20000000000000E-01   7.20000000000000E-01   0.00000000000000E+00   0.00000000000000E+00   5.10799173184714E-14
      1.98215312460031E-17   5.10997388497174E-14   1.36677715625622E-13   7.20000000000000E-01   7.20000000000000E-01
      0.00000000000000E+00   0.00000000000000E+00   5.10850623497444E-14   1.84566266279496E-17   5.11035189763724E-14
      1.84198344965328E-13   7.20000000000000E-01   7.20000000000000E-01   0.00000000000000E+00   0.00000000000000E+00
      5.10729589162172E-14   1.90425963453846E-17   5.10920015125626E-14   1.72176512238917E-13   0.00000000000000E+00
      0.00000000000000E+00   0.00000000000000E+00   0.00000000000000E+00  -1.41533815364421E-15  -2.85377283752691E-14
     -2.99530665289133E-14  -4.53946763733392E-13   0.00000000000000E+00   0.00000000000000E+00   0.00000000000000E+00
      0.00000000000000E+00  -8.66203014703590E-15  -1.65800374075367E-13  -1.74462404222403E-13  -1.87952451932103E-13
      7.20000000000000E-01   7.20000000000000E-01   0.00000000000000E+00   0.00000000000000E+00   5.11006798992236E-14
      1.95315134400912E-17   5.11202114126637E-14   1.48846642835629E-13
      1.00000000000000E+00
      8.00000000000000E-01   8.00000000000000E-01   0.00000000000000E+00   0.00000000000000E+00   5.46686537380856E-14
      2.03877352794678E-17   5.46890414733651E-14   1.39548839295757E-13   8.00000000000000E-01   8.00000000000000E-01
      0.00000000000000E+00   0.00000000000000E+00   5.46643711572691E-14   1.98407976767064E-17   5.46842119549458E-14
      1.87607930689702E-13   8.00000000000000E-01   8.00000000000000E-01   0.00000000000000E+00   0.00000000000000E+00
      5.46519830791709E-14   2.01037882298150E-17   5.46720868674007E-14   1.75499555802814E-13   0.00000000000000E+00
      0.00000000000000E+00   0.00000000000000E+00   0.00000000000000E+00  -1.41535451853247E-15  -3.21230482564485E-14
     -3.35384027749810E-14  -4.65973139988594E-13   0.00000000000000E+00   0.00000000000000E+00   0.00000000000000E+00
      0.00000000000000E+00  -8.68722955778454E-15  -1.76517783701242E-13  -1.85205013259026E-13  -1.88487540276849E-13
      8.00000000000000E-01   8.00000000000000E-01   0.00000000000000E+00   0.00000000000000E+00   5.46777996423873E-14
      2.02760959083175E-17   5.46980757382956E-14   1.51804354477165E-13
      0.00000000000000E+00
      8.00000000000000E-01   8.00000000000000E-01   0.00000000000000E+00   0.00000000000000E+00   5.46693985220524E-14
      2.07468405171203E-17   5.46901453625695E-14   1.39548839295759E-13   8.00000000000000E-01   8.00000000000000E-01
      0.00000000000000E+00   0.00000000000000E+00   5.46637840663904E-14   2.07403372257734E-17   5.46845244036162E-14
      1.87607930689704E-13   8.00000000000000E-01   8.00000000000000E-01   0.00000000000000E+00   0.00000000000000E+00
      5.46513442607393E-14   2.07526124674994E-17   5.46720968732068E-14   1.75499555802815E-13   0.00000000000000E+00
      0.00000000000000E+00   0.00000000000000E+00   0.00000000000000E+00  -1.41535451853578E-15  -3.21230493085777E-14
     -3.35384038271135E-14  -4.65973139988599E-13   0.00000000000000E+00   0.00000000000000E+00   0.00000000000000E+00
      0.00000000000000E+00  -8.68722955778458E-15  -1.76520164198045E-13  -1.85207393755829E-13  -1.88487540276850E-13
      8.00000000000000E-01   8.00000000000000E-01   0.00000000000000E+00   0.00000000000000E+00   5.46782807676382E-14
      2.07501759121461E-17   5.46990309435504E-14   1.51804354477165E-13
      1.00000000000000E-01
      8.00000000000000E-01   8.00000000000000E-01   0.00000000000000E+00   0.00000000000000E+00   1.06957138735292E-13
      2.00847548113138E-17   1.06977223490104E-13   1.41613690549606E-13   8.00000000000000E-01   8.00000000000000E-01
      0.00000000000000E+00   0.00000000000000E+00   1.06947127374871E-13   1.90683218978962E-17   1.06966195696769E-13
      1.92872599359391E-13   8.00000000000000E-01   8.00000000000000E-01   0.00000000000000E+00   0.00000000000000E+00
      1.06925147184439E-13   1.94860570221717E-17   1.06944633241461E-13   1.79533530355860E-13   0.00000000000000E+00
      0.00000000000000E+00   0.00000000000000E+00   0.00000000000000E+00  -1.41535451853396E-15  -3.10322207466709E-14
     -3.24475752652049E-14  -4.65973138969278E-13  -2.00000000000000E+00  -2.00000000000000E+00   0.00000000000000E+00
      0.00000000000000E+00  -9.33803212981129E-15  -3.86094639738507E-13  -3.95432671868318E-13  -2.02490214309043E-13
      8.00000000000000E-01   8.00000000000000E-01   0.00000000000000E+00   0.00000000000000E+00   1.06972352856406E-13
      1.98418487836339E-17   1.06992194705189E-13   1.54443533013459E-13
      2.00000000000000E-01
      8.00000000000000E-01   8.00000000000000E-01   0.00000000000000E+00   0.00000000000000E+00   1.40093635668009E-13
      1.74760877492102E-17   1.40111111755758E-13   1.44375880814109E-13   8.00000000000000E-01   8.00000000000000E-01
      0.00000000000000E+00   0.00000000000000E+00   1.40078681505893E-13   1.24320668811015E-17   1.40091113572774E-13
      1.99914174758278E-13   8.00000000000000E-01   8.00000000000000E-01   0.00000000000000E+00   0.00000000000000E+00
      1.40045350173107E-13   1.46167852781214E-17   1.40059966958385E-13   1.84929480321715E-13   0.00000000000000E+00
      0.00000000000000E+00   0.00000000000000E+00   0.00000000000000E+00  -1.41535451852635E-15  -3.02726545746446E-14
     -3.16880090931710E-14  -4.65973134953463E-13  -4.00000000000000E+00  -4.00000000000000E+00   0.00000000000000E+00
      0.00000000000000E+00  -1.01843273060395E-14  -5.18525886529319E-13  -5.28710213835359E-13  -2.21220283186767E-13
      8.00000000000000E-01   8.00000000000000E-01   0.00000000000000E+00   0.00000000000000E+00   1.40119628486979E-13
      1.64021546347510E-17   1.40136030641614E-13   1.57973882246123E-13
      3.00000000000000E-01
      8.00000000000000E-01   8.00000000000000E-01   0.00000000000000E+00   0.00000000000000E+00   1.67023920317194E-13
      2.07438456879307E-17   1.67044664162882E-13   1.48239253467345E-13   8.00000000000000E-01   8.00000000000000E-01
      0.00000000000000E+00   0.00000000000000E+00   1.67002466672699E-13   2.07368615406161E-17   1.67023203534239E-13
      2.09734647671741E-13   8.00000000000000E-01   8.00000000000000E-01   0.00000000000000E+00   0.00000000000000E+00
      1.66954855447618E-13   2.07409132436336E-17   1.66975596360862E-13   1.92466677225919E-13   0.00000000000000E+00
      0.00000000000000E+00   0.00000000000000E+00   0.00000000000000E+00  -1.41535451834900E-15  -2.96585580661411E-14
     -3.10739125844901E-14  -4.65973040716256E-13  -6.00000000000000E+00  -6.00000000000000E+00   0.00000000000000E+00
      0.00000000000000E+00  -1.13221534839498E-14  -6.25733445596713E-13  -6.37055599080663E-13  -2.47375749224045E-13
      8.00000000000000E-01   8.00000000000000E-01   0.00000000000000E+00   0.00000000000000E+00   1.67065298267185E-13
      2.07493399847715E-17   1.67086047607170E-13   1.62908211575296E-13
      4.00000000000000E-01
      8.00000000000000E-01   8.00000000000000E-01   0.00000000000000E+00   0.00000000000000E+00   1.90695504786991E-13
      2.07437888850062E-17   1.90716248575876E-13   1.52648024460490E-13   8.00000000000000E-01   8.00000000000000E-01
      0.00000000000000E+00   0.00000000000000E+00   1.90666388626634E-13   2.07432955453252E-17   1.90687131922180E-13
      2.20521525482241E-13   8.00000000000000E-01   8.00000000000000E-01   0.00000000000000E+00   0.00000000000000E+00
      1.90602244685057E-13   2.07442836899643E-17   1.90622988968747E-13   2.00911686378493E-13   0.00000000000000E+00
      0.00000000000000E+00   0.00000000000000E+00   0.00000000000000E+00  -1.41535451524620E-15  -2.91355949276827E-14
     -3.05509494429289E-14  -4.65971392801829E-13  -8.00000000000000E+00  -8.00000000000000E+00   0.00000000000000E+00
      0.00000000000000E+00  -1.25359475541420E-14  -7.19716145500556E-13  -7.32252093054699E-13  -2.76594254888575E-13
      8.00000000000000E-01   8.00000000000000E-01   0.00000000000000E+00   0.00000000000000E+00   1.90755930702224E-13
      2.07423285985465E-17   1.90776673030823E-13   1.68484411369180E-13
      5.00000000000000E-01
      8.00000000000000E-01   8.00000000000000E-01   0.00000000000000E+00   0.00000000000000E+00   2.13032977457014E-13
      2.07439501715475E-17   2.13053721407186E-13   1.57445806900787E-13   8.00000000000000E-01   8.00000000000000E-01
      0.00000000000000E+00   0.00000000000000E+00   2.12995963069400E-13   2.07441686199245E-17   2.13016707238020E-13
      2.29848229480286E-13   8.00000000000000E-01   8.00000000000000E-01   0.00000000000000E+00   0.00000000000000E+00
      2.12914775892460E-13   2.07440753860387E-17   2.12935519967846E-13   2.08983239865333E-13   0.00000000000000E+00
      0.00000000000000E+00   0.00000000000000E+00   0.00000000000000E+00  -1.41535447441720E-15  -2.87038312260655E-14
     -3.01191857004827E-14  -4.65949710527966E-13  -1.00000000000000E+01  -1.00000000000000E+01   0.00000000000000E+00
      0.00000000000000E+00  -1.36412017651218E-14  -8.08379221546316E-13  -8.22020423311438E-13  -3.04471967887606E-13
      8.00000000000000E-01   8.00000000000000E-01   0.00000000000000E+00   0.00000000000000E+00   2.13112917644847E-13
      2.07427540216903E-17   2.13133660398869E-13   1.74144402169167E-13
      6.00000000000000E-01
      8.00000000000000E-01   8.00000000000000E-01   0.00000000000000E+00   0.00000000000000E+00   2.34247346686733E-13
      2.07438997922459E-17   2.34268090586525E-13   1.62807461978980E-13   8.00000000000000E-01   8.00000000000000E-01
      0.00000000000000E+00   0.00000000000000E+00   2.34204362341959E-13   2.07434946954980E-17   2.34225105836655E-13
      2.37153981584634E-13   8.00000000000000E-01   8.00000000000000E-01   0.00000000000000E+00   0.00000000000000E+00
      2.34111632734427E-13   2.07439200688581E-17   2.34132376654496E-13   2.16170623541112E-13   0.00000000000000E+00
      0.00000000000000E+00   0.00000000000000E+00   0.00000000000000E+00  -1.41535400848709E-15  -2.85691312467174E-14
     -2.99844852552045E-14  -4.65702465645543E-13  -1.20000000000000E+01  -1.20000000000000E+01   0.00000000000000E+00
      0.00000000000000E+00  -1.46194846821633E-14  -8.92390680498988E-13  -9.07010165181151E-13  -3.30231737086414E-13
      8.00000000000000E-01   8.00000000000000E-01   0.00000000000000E+00   0.00000000000000E+00   2.34348334042090E-13
      2.07433165927167E-17   2.34369077358683E-13   1.79802135627231E-13
      7.00000000000000E-01
      8.00000000000000E-01   8.00000000000000E-01   0.00000000000000E+00   0.00000000000000E+00   2.55430311623569E-13
      2.07438746943927E-17   2.55451055498264E-13   1.67610377306808E-13   8.00000000000000E-01   8.00000000000000E-01
      0.00000000000000E+00   0.00000000000000E+00   2.55380592033989E-13   2.07438291191597E-17   2.55401335863109E-13
      2.42829908232545E-13   8.00000000000000E-01   8.00000000000000E-01   0.00000000000000E+00   0.00000000000000E+00
      2.55285032532643E-13   2.07438691250140E-17   2.55305776401768E-13   2.21828480922956E-13   0.00000000000000E+00
      0.00000000000000E+00   0.00000000000000E+00   0.00000000000000E+00  -1.41534902761552E-15  -3.15485712362701E-14
     -3.29639202638856E-14  -4.63068706174084E-13  -1.40000000000000E+01  -1.40000000000000E+01   0.00000000000000E+00
      0.00000000000000E+00  -1.54842123911887E-14  -9.73336997988956E-13  -9.88821210380144E-13  -3.53904486011181E-13
      8.00000000000000E-01   8.00000000000000E-01   0.00000000000000E+00   0.00000000000000E+00   2.55606219004610E-13
      2.07438762794535E-17   2.55626962880889E-13   1.84704425722954E-13
      8.00000000000000E-01
      8.00000000000000E-01   8.00000000000000E-01   0.00000000000000E+00   0.00000000000000E+00   2.78707194603201E-13
      2.07439754640245E-17   2.78727938578665E-13   1.70154587572577E-13   8.00000000000000E-01   8.00000000000000E-01
      0.00000000000000E+00   0.00000000000000E+00   2.78655521675548E-13   2.07443600719645E-17   2.78676266035620E-13
      2.45485074624874E-13   8.00000000000000E-01   8.00000000000000E-01   0.00000000000000E+00   0.00000000000000E+00
      2.78549984188488E-13   2.07445010515353E-17   2.78570728689540E-13   2.24486003504264E-13   0.00000000000000E+00
      0.00000000000000E+00   0.00000000000000E+00   0.00000000000000E+00  -1.41532613376261E-15  -4.24356218482606E-14
     -4.38509479820232E-14  -4.51545303326476E-13  -1.60000000000000E+01  -1.60000000000000E+01   0.00000000000000E+00
      0.00000000000000E+00  -1.62578014192414E-14  -1.05473785378511E-12  -1.07099565520435E-12  -3.75841935542710E-13
      8.00000000000000E-01   8.00000000000000E-01   0.00000000000000E+00   0.00000000000000E+00   2.78850925483147E-13
      2.07443993997986E-17   2.78871669882547E-13   1.87261573167473E-13
      9.00000000000000E-01
      8.00000000000000E-01   8.00000000000000E-01   0.00000000000000E+00   0.00000000000000E+00   2.83965283326251E-13
      2.07447644884484E-17   2.83986028090740E-13   1.71700884011535E-13   8.00000000000000E-01   8.00000000000000E-01
      0.00000000000000E+00   0.00000000000000E+00   2.83911454819980E-13   2.07450887084740E-17   2.83932199908689E-13
      2.47031923297492E-13   8.00000000000000E-01   8.00000000000000E-01   0.00000000000000E+00   0.00000000000000E+00
      2.83799980956849E-13   2.07442131694373E-17   2.83820725170019E-13   2.26033243970283E-13   0.00000000000000E+00
      0.00000000000000E+00   0.00000000000000E+00   0.00000000000000E+00  -1.41529765702663E-15  -3.81007949794723E-14
     -3.95160926364989E-14  -4.36236728702902E-13  -1.80000000000000E+01  -1.80000000000000E+01   0.00000000000000E+00
      0.00000000000000E+00  -1.69912128789130E-14  -1.07935436734689E-12  -1.09634558022580E-12  -3.97337445391578E-13
      8.00000000000000E-01   8.00000000000000E-01   0.00000000000000E+00   0.00000000000000E+00   2.84101975835194E-13
      2.07438576625673E-17   2.84122719692857E-13   1.88808122815173E-13
      1.00000000000000E+00
      8.00000000000000E-01   8.00000000000000E-01   0.00000000000000E+00   0.00000000000000E+00   2.85178146123739E-13
      2.07445356244941E-17   2.85198890659363E-13   1.73023802137109E-13   8.00000000000000E-01   8.00000000000000E-01
      0.00000000000000E+00   0.00000000000000E+00   2.85123287413140E-13   2.07436271047802E-17   2.85144031040245E-13
      2.48354779811511E-13   8.00000000000000E-01   8.00000000000000E-01   0.00000000000000E+00   0.00000000000000E+00
      2.85007491255001E-13   2.07445480219753E-17   2.85028235803023E-13   2.27356135564360E-13   0.00000000000000E+00
      0.00000000000000E+00   0.00000000000000E+00   0.00000000000000E+00  -1.41526580657522E-15  -3.44431145360437E-14
     -3.58583803426189E-14  -4.20095574141097E-13  -2.00000000000000E+01  -2.00000000000000E+01   0.00000000000000E+00
      0.00000000000000E+00  -1.76994148835869E-14  -1.08714997074855E-12  -1.10484938563213E-12  -4.18770214521983E-13
      8.00000000000000E-01   8.00000000000000E-01   0.00000000000000E+00   0.00000000000000E+00   2.85315864127003E-13
      2.07443451188802E-17   2.85336608472122E-13   1.90131071150099E-13
}
