DF-ISE text

Info {
  version   = 1.0
  type      = xyplot
  datasets  = [
    "time"
    "Ntop_0_1 OuterVoltage" "Ntop_0_1 InnerVoltage" "Ntop_0_1 QuasiFermiPotential" "Ntop_0_1 DisplacementCurrent" "Ntop_0_1 eCurrent"
    "Ntop_0_1 hCurrent" "Ntop_0_1 TotalCurrent" "Ntop_0_1 Charge" "Ntop_1_0 OuterVoltage" "Ntop_1_0 InnerVoltage"
    "Ntop_1_0 QuasiFermiPotential" "Ntop_1_0 DisplacementCurrent" "Ntop_1_0 eCurrent" "Ntop_1_0 hCurrent" "Ntop_1_0 TotalCurrent"
    "Ntop_1_0 Charge" "Ntop_1_1 OuterVoltage" "Ntop_1_1 InnerVoltage" "Ntop_1_1 QuasiFermiPotential" "Ntop_1_1 DisplacementCurrent"
    "Ntop_1_1 eCurrent" "Ntop_1_1 hCurrent" "Ntop_1_1 TotalCurrent" "Ntop_1_1 Charge" "Ptop OuterVoltage"
    "Ptop InnerVoltage" "Ptop QuasiFermiPotential" "Ptop DisplacementCurrent" "Ptop eCurrent" "Ptop hCurrent"
    "Ptop TotalCurrent" "Ptop Charge" "Pbot OuterVoltage" "Pbot InnerVoltage" "Pbot QuasiFermiPotential"
    "Pbot DisplacementCurrent" "Pbot eCurrent" "Pbot hCurrent" "Pbot TotalCurrent" "Pbot Charge"
    "Ntop_0_0 OuterVoltage" "Ntop_0_0 InnerVoltage" "Ntop_0_0 QuasiFermiPotential" "Ntop_0_0 DisplacementCurrent" "Ntop_0_0 eCurrent"
    "Ntop_0_0 hCurrent" "Ntop_0_0 TotalCurrent" "Ntop_0_0 Charge" ]
  functions = [
    Time
    OuterVoltage InnerVoltage QuasiFermiPotential DisplacementCurrent eCurrent
    hCurrent TotalCurrent Charge OuterVoltage InnerVoltage
    QuasiFermiPotential DisplacementCurrent eCurrent hCurrent TotalCurrent
    Charge OuterVoltage InnerVoltage QuasiFermiPotential DisplacementCurrent
    eCurrent hCurrent TotalCurrent Charge OuterVoltage
    InnerVoltage QuasiFermiPotential DisplacementCurrent eCurrent hCurrent
    TotalCurrent Charge OuterVoltage InnerVoltage QuasiFermiPotential
    DisplacementCurrent eCurrent hCurrent TotalCurrent Charge
    OuterVoltage InnerVoltage QuasiFermiPotential DisplacementCurrent eCurrent
    hCurrent TotalCurrent Charge ]
}

Data {
      5.00000000000000E-13
      8.00000000000000E-01   8.00000000000000E-01   0.00000000000000E+00   4.11283201182273E-15   8.14418666599604E-14
      2.07553441636481E-17   8.55754540159468E-14   1.45463661605614E-13   8.00000000000000E-01   8.00000000000000E-01
      0.00000000000000E+00  -1.13557449186516E-15   8.43332475439878E-14   2.07553275513016E-17   8.32184283796740E-14
      2.04250651365934E-13   8.00000000000000E-01   8.00000000000000E-01   0.00000000000000E+00   7.58958203067427E-16
      8.69937788851364E-14   2.07549962381954E-17   8.77734920844420E-14   1.81102027690379E-13   0.00000000000000E+00
      0.00000000000000E+00   0.00000000000000E+00  -4.32281068133968E-13   1.82676116865559E-12   7.00139841152141E-07
      7.00141235632242E-07  -1.88282719772223E-13  -1.70000000000000E+01  -1.70000000000000E+01   0.00000000000000E+00
     -6.87978946031636E-14   3.62673862418179E-12  -7.00145140055704E-07  -7.00141582114974E-07  -4.95642688448656E-13
      8.00000000000000E-01   8.00000000000000E-01   0.00000000000000E+00   2.83764677570378E-15   8.70569568305829E-14
      2.07549989841646E-17   8.99153586052709E-14   1.53109067558952E-13
      1.25000000000000E-12
      8.00000000000000E-01   8.00000000000000E-01   0.00000000000000E+00   2.60284048979811E-15   8.48689744799032E-14
      2.07551955687652E-17   8.74925701652701E-14   1.45463661605614E-13   8.00000000000000E-01   8.00000000000000E-01
      0.00000000000000E+00   2.12654943805909E-15   8.45996534274954E-14   2.07550620993460E-17   8.67469579276539E-14
      2.04250651365934E-13   8.00000000000000E-01   8.00000000000000E-01   0.00000000000000E+00   2.69657107230336E-15
      8.35951552288388E-14   2.07551811964073E-17   8.63124814823386E-14   1.81102027690379E-13   0.00000000000000E+00
      0.00000000000000E+00   0.00000000000000E+00  -4.70988323964446E-13   8.43591856422047E-12   7.00133811259148E-07
      7.00141776189388E-07  -1.88282719771825E-13  -1.70000000000000E+01  -1.70000000000000E+01   0.00000000000000E+00
     -4.55639628290527E-13   1.68037051093614E-11  -7.00158484727918E-07  -7.00142136662437E-07  -4.95642688448849E-13
      8.00000000000000E-01   8.00000000000000E-01   0.00000000000000E+00   3.58144352711082E-15   9.63188439563050E-14
      2.07551407994060E-17   9.99210426242153E-14   1.53109067558745E-13
      2.37500000000000E-12
      8.00000000000000E-01   8.00000000000000E-01   0.00000000000000E+00  -5.08624661083402E-16   9.01602066897926E-14
      2.07551576199181E-17   8.96723371863291E-14   1.45463661605616E-13   8.00000000000000E-01   8.00000000000000E-01
      0.00000000000000E+00   1.59564994286932E-16   8.99215981919544E-14   2.07551023604569E-17   9.01019182886018E-14
      2.04250651365936E-13   8.00000000000000E-01   8.00000000000000E-01   0.00000000000000E+00  -2.07232129810150E-16
      8.62328948062685E-14   2.07551229483741E-17   8.60464177994068E-14   1.81102027690380E-13   0.00000000000000E+00
      0.00000000000000E+00   0.00000000000000E+00   6.65681180563431E-13   6.98292812827950E-11   7.00077700533964E-07
      7.00148195496427E-07  -1.88282719765881E-13  -1.70000000000000E+01  -1.70000000000000E+01   0.00000000000000E+00
     -5.01592429951756E-12   1.39136739331626E-10  -7.00282801484365E-07  -7.00148680669333E-07  -4.95642688451730E-13
      8.00000000000000E-01   8.00000000000000E-01   0.00000000000000E+00   4.57678652666787E-15   2.14754692078759E-13
      2.07549989591606E-17   2.19352233604386E-13   1.53109067555678E-13
      4.06250000000000E-12
      8.00000000000000E-01   8.00000000000000E-01   0.00000000000000E+00   2.24614512189869E-15   1.69973208152725E-13
      2.07555188197875E-17   1.72240108793444E-13   1.45463661605690E-13   8.00000000000000E-01   8.00000000000000E-01
      0.00000000000000E+00   1.27783377709002E-15   1.69935613957252E-13   2.07550895312271E-17   1.71234202823873E-13
      2.04250651366011E-13   8.00000000000000E-01   8.00000000000000E-01   0.00000000000000E+00  -7.05602551090135E-16
      9.85703899789883E-14   2.07551048356937E-17   9.78855425327338E-14   1.81102027690391E-13   0.00000000000000E+00
      0.00000000000000E+00   0.00000000000000E+00   6.49701513981261E-12   1.05983417534671E-09   6.99223918261706E-07
      7.00290249452192E-07  -1.88282719588159E-13  -1.70000000000000E+01  -1.70000000000000E+01   0.00000000000000E+00
     -1.05974566729720E-10   2.10989687426404E-09  -7.02297425362415E-07  -7.00293503054881E-07  -4.95642688538011E-13
      8.00000000000000E-01   8.00000000000000E-01   0.00000000000000E+00   7.91024944396034E-14   2.73311958689419E-12
      2.07550909951163E-17   2.81224283642479E-12   1.53109067464077E-13
      6.59375000000000E-12
      8.00000000000000E-01   8.00000000000000E-01   0.00000000000000E+00   4.76998834409101E-14   2.49179119794259E-12
      2.07550593186879E-17   2.53951183644282E-12   1.45463661608747E-13   8.00000000000000E-01   8.00000000000000E-01
      0.00000000000000E+00   4.65529820653245E-14   2.49515204238016E-12   2.07549102516655E-17   2.54172577935574E-12
      2.04250651369078E-13   8.00000000000000E-01   8.00000000000000E-01   0.00000000000000E+00   6.74476012947169E-15
      4.72547893287520E-13   2.07550873824925E-17   4.79313408504375E-13   1.81102027690885E-13   0.00000000000000E+00
      0.00000000000000E+00   0.00000000000000E+00   1.29409467273582E-10   2.12260175799415E-08   6.83173270113766E-07
      7.04528697160981E-07  -1.88282711893592E-13  -1.70000000000000E+01  -1.70000000000000E+01   0.00000000000000E+00
     -3.11841766146837E-09   4.21872041468502E-08  -7.43680222288128E-07  -7.04611435802746E-07  -4.95642692280810E-13
      8.00000000000000E-01   8.00000000000000E-01   0.00000000000000E+00   1.52865620574392E-12   7.56494137806860E-11
      2.07549234329538E-17   7.71780907413533E-11   1.53109063505691E-13
      1.03906250000000E-11
      8.00000000000000E-01   8.00000000000000E-01   0.00000000000000E+00   3.79246632703775E-13   3.11071651409273E-11
      2.07550071961751E-17   3.14864325286383E-11   1.45463661670838E-13   8.00000000000000E-01   8.00000000000000E-01
      0.00000000000000E+00   3.80217905796547E-13   3.11514080855830E-11   2.07552088850544E-17   3.15316467465884E-11
      2.04250651431477E-13   8.00000000000000E-01   8.00000000000000E-01   0.00000000000000E+00   5.98839522863733E-14
      5.04052977227677E-12   2.07551280991871E-17   5.10043447969124E-12   1.81102027700836E-13   0.00000000000000E+00
      0.00000000000000E+00   0.00000000000000E+00   1.07795897346891E-09   1.76929056745914E-07   5.81605408466247E-07
      7.59612424185630E-07  -1.88282547577964E-13  -1.70000000000000E+01  -1.70000000000000E+01   0.00000000000000E+00
     -4.22694667968789E-08   3.50532965537614E-07  -1.06894194482521E-06  -7.60678446084472E-07  -4.95642772568415E-13
      8.00000000000000E-01   8.00000000000000E-01   0.00000000000000E+00   1.22651048338215E-11   9.85638259494032E-10
      2.07557192978598E-17   9.97903385083572E-10   1.53108979343229E-13
      1.60859375000000E-11
      8.00000000000000E-01   8.00000000000000E-01   0.00000000000000E+00   1.58429679601425E-13   6.71628275747701E-11
      2.07550853799443E-17   6.73212780094570E-11   1.45463661967867E-13   8.00000000000000E-01   8.00000000000000E-01
      0.00000000000000E+00   1.58866060459222E-13   6.72697742497159E-11   2.07555046734540E-17   6.74286610656798E-11
      2.04250651731306E-13   8.00000000000000E-01   8.00000000000000E-01   0.00000000000000E+00   2.43274735657912E-14
      1.06096829098321E-11   2.07549711413770E-17   1.06340311383690E-11   1.81102027747740E-13   0.00000000000000E+00
      0.00000000000000E+00   0.00000000000000E+00   5.73957302132147E-10   9.59135012511589E-08   7.47863529812092E-07
      8.44350988365383E-07  -1.88281698127001E-13  -1.70000000000000E+01  -1.70000000000000E+01   0.00000000000000E+00
     -1.02377948301443E-07   1.84706767943123E-07  -9.29027956357539E-07  -8.46699136715860E-07  -4.95643191467084E-13
      8.00000000000000E-01   8.00000000000000E-01   0.00000000000000E+00   5.53802323916293E-12   2.19722633626947E-09
      2.07551449929251E-17   2.20276438026377E-09   1.53108548147170E-13
      2.46289062500000E-11
      8.00000000000000E-01   8.00000000000000E-01   0.00000000000000E+00  -3.18491066876220E-14   7.36246273965631E-11
      2.07554209757723E-17   7.35927990452965E-11   1.45463662630349E-13   8.00000000000000E-01   8.00000000000000E-01
      0.00000000000000E+00  -3.14969418756039E-14   7.37581528539438E-11   2.07553049082272E-17   7.37266766673731E-11
      2.04250652406455E-13   8.00000000000000E-01   8.00000000000000E-01   0.00000000000000E+00  -5.29163489275186E-15
      1.14186863481279E-11   2.07550067657500E-17   1.14134154682420E-11   1.81102027850791E-13   0.00000000000000E+00
      0.00000000000000E+00   0.00000000000000E+00   3.97356736929228E-12   4.20871784528941E-09   8.75549080247354E-07
      8.79761771660012E-07  -1.88279703747541E-13  -1.70000000000000E+01  -1.70000000000000E+01   0.00000000000000E+00
     -1.26780591968057E-07   3.42239861163782E-10  -7.55995711118871E-07  -8.82434063225764E-07  -4.95644188490265E-13
      8.00000000000000E-01   8.00000000000000E-01   0.00000000000000E+00  -6.36150255241528E-13   2.51419480407582E-09
      2.07544435679256E-17   2.51355867457502E-09   1.53107549350208E-13
      3.74433593750000E-11
      8.00000000000000E-01   8.00000000000000E-01   0.00000000000000E+00  -2.07315259660970E-14   6.47538900537058E-11
      2.07551429890373E-17   6.47331792828827E-11   1.45463663671348E-13   8.00000000000000E-01   8.00000000000000E-01
      0.00000000000000E+00  -2.09428120018051E-14   6.48862269470466E-11   2.07551723660173E-17   6.48653048902171E-11
      2.04250653485097E-13   8.00000000000000E-01   8.00000000000000E-01   0.00000000000000E+00  -3.50886315936877E-15
      9.91364235317344E-12   2.07549546017128E-17   9.91015424496867E-12   1.81102028010549E-13   0.00000000000000E+00
      0.00000000000000E+00   0.00000000000000E+00  -1.85445822768773E-12   3.62288793636175E-09   8.76311458096776E-07
      8.79932491574910E-07  -1.88276531426134E-13  -1.70000000000000E+01  -1.70000000000000E+01   0.00000000000000E+00
     -1.25329010181151E-07  -2.00661745651055E-14  -7.57090761960055E-07  -8.82419792207381E-07  -4.95645804480160E-13
      8.00000000000000E-01   8.00000000000000E-01   0.00000000000000E+00  -3.56863662423730E-13   2.34814883696094E-09
      2.07552636473679E-17   2.34779199405378E-09   1.53105990739298E-13
      5.66650390625000E-11
      8.00000000000000E-01   8.00000000000000E-01   0.00000000000000E+00  -2.36201434294165E-14   5.28728544805415E-11
      2.07554378927282E-17   5.28492550925499E-11   1.45463665174791E-13   8.00000000000000E-01   8.00000000000000E-01
      0.00000000000000E+00  -2.37990779306395E-14   5.30024890314704E-11   2.07551982396002E-17   5.29787107087380E-11
      2.04250655076141E-13   8.00000000000000E-01   8.00000000000000E-01   0.00000000000000E+00  -3.91057668603640E-15
      7.97738629969293E-12   2.07549064637575E-17   7.97349647791336E-12   1.81102028238442E-13   0.00000000000000E+00
      0.00000000000000E+00   0.00000000000000E+00  -3.44267769468922E-12   3.07438896406131E-09   8.75636509502901E-07
      8.78707455789268E-07  -1.88271966176489E-13  -1.70000000000000E+01  -1.70000000000000E+01   0.00000000000000E+00
     -1.22121188382868E-07  -2.00663011059827E-14  -7.58825187196333E-07  -8.80946395645502E-07  -4.95648182927388E-13
      8.00000000000000E-01   8.00000000000000E-01   0.00000000000000E+00  -4.60176559506655E-13   2.12559854976114E-09
      2.07549445934366E-17   2.12513839395658E-09   1.53103800614502E-13
      8.54975585937500E-11
      8.00000000000000E-01   8.00000000000000E-01   0.00000000000000E+00  -2.21711682296028E-14   3.49367942071624E-11
      2.07552271166019E-17   3.49146437941600E-11   1.45463667179231E-13   8.00000000000000E-01   8.00000000000000E-01
      0.00000000000000E+00  -2.20240144450091E-14   3.50614739693164E-11   2.07551944705430E-17   3.50394707100659E-11
      2.04250657276031E-13   8.00000000000000E-01   8.00000000000000E-01   0.00000000000000E+00  -3.37706339404490E-15
      5.12804728908513E-12   2.07549094655706E-17   5.12469098060055E-12   1.81102028536860E-13   0.00000000000000E+00
      0.00000000000000E+00   0.00000000000000E+00  -4.94004027876422E-12   2.40078586369888E-09   8.73607937425298E-07
      8.76003783248718E-07  -1.88265515353319E-13  -1.70000000000000E+01  -1.70000000000000E+01   0.00000000000000E+00
     -1.16915129791303E-07  -2.00664267511972E-14  -7.60930226599773E-07  -8.77845376457503E-07  -4.95651629222195E-13
      8.00000000000000E-01   8.00000000000000E-01   0.00000000000000E+00  -4.51845384064009E-13   1.76696622793236E-09
      2.07554520128140E-17   1.76651440330375E-09   1.53100791583390E-13
      1.28746337890625E-10
      8.00000000000000E-01   8.00000000000000E-01   0.00000000000000E+00  -2.00522418921817E-14   1.01059002720091E-11
      2.07556152921577E-17   1.00858687857322E-11   1.45463669341545E-13   8.00000000000000E-01   8.00000000000000E-01
      0.00000000000000E+00  -2.00777960298179E-14   1.02241501255262E-11   2.07557245649953E-17   1.02040930852209E-11
      2.04250660013594E-13   8.00000000000000E-01   8.00000000000000E-01   0.00000000000000E+00  -3.06481056668105E-15
      1.25571825092205E-12   2.07549730689134E-17   1.25267419532844E-12   1.81102028845932E-13   0.00000000000000E+00
      0.00000000000000E+00   0.00000000000000E+00  -5.60262845952700E-12   1.65452690390479E-09   8.69534604103486E-07
      8.71183528378931E-07  -1.88256603612383E-13  -1.70000000000000E+01  -1.70000000000000E+01   0.00000000000000E+00
     -1.09102033153226E-07  -2.00665912059021E-14  -7.63351132700330E-07  -8.72453185920148E-07  -4.95656515994502E-13
      8.00000000000000E-01   8.00000000000000E-01   0.00000000000000E+00  -4.29636799040614E-13   1.24854452120197E-09
      2.07551485542015E-17   1.24811490515808E-09   1.53096761405814E-13
      1.93619506835937E-10
      8.00000000000000E-01   8.00000000000000E-01   0.00000000000000E+00  -1.68404640785731E-14  -2.22650409385224E-11
      2.07553505646585E-17  -2.22818606472504E-11   1.45463670219123E-13   8.00000000000000E-01   8.00000000000000E-01
      0.00000000000000E+00  -1.68360264015103E-14  -2.21522479511512E-11   2.07547115620146E-17  -2.21690632228412E-11
      2.04250663256415E-13   8.00000000000000E-01   8.00000000000000E-01   0.00000000000000E+00  -2.57723524895776E-15
     -3.72906938460720E-12   2.07551283644075E-17  -3.73162586472779E-12   1.81102028930806E-13   0.00000000000000E+00
      0.00000000000000E+00   0.00000000000000E+00  -5.91090078373193E-12   9.45303607277432E-10   8.62600862677027E-07
      8.63540255383521E-07  -1.88244636683776E-13  -1.70000000000000E+01  -1.70000000000000E+01   0.00000000000000E+00
     -9.82526580510573E-08  -2.00668095601368E-14  -7.65766484892762E-07  -8.64019163010629E-07  -4.95663238793676E-13
      8.00000000000000E-01   8.00000000000000E-01   0.00000000000000E+00  -3.91770811811305E-13   5.27481926904208E-10
      2.07549781415890E-17   5.27090176847375E-10   1.53091513071107E-13
      2.42274383544922E-10
      8.00000000000000E-01   8.00000000000000E-01   0.00000000000000E+00  -1.45031097453623E-14  -4.28059866703930E-11
      2.07549875359290E-17  -4.28204690251509E-11   1.45463668876335E-13   8.00000000000000E-01   8.00000000000000E-01
      0.00000000000000E+00  -1.44975992412918E-14  -4.26932016241424E-11   2.07551270547728E-17  -4.27076784682566E-11
      2.04250665815796E-13   8.00000000000000E-01   8.00000000000000E-01   0.00000000000000E+00  -2.24281181575118E-15
     -6.86343474844997E-12   2.07551911448526E-17  -6.86565680507457E-12   1.81102028678160E-13   0.00000000000000E+00
      0.00000000000000E+00   0.00000000000000E+00  -6.06503255522411E-12   6.25509267434718E-10   8.57071709340387E-07
      8.57691153575267E-07  -1.88236581602104E-13  -1.70000000000000E+01  -1.70000000000000E+01   0.00000000000000E+00
     -9.07698071203354E-08  -2.00669568607215E-14  -7.66859408270643E-07  -8.57629235457936E-07  -4.95667836305966E-13
      8.00000000000000E-01   8.00000000000000E-01   0.00000000000000E+00  -3.63596446036635E-13   3.08392626614644E-11
      2.07550336182027E-17   3.04756869704614E-11   1.53088054537779E-13
      3.15256698608398E-10
      8.00000000000000E-01   8.00000000000000E-01   0.00000000000000E+00  -1.08532634345553E-14  -6.77131541469136E-11
      2.07550090250352E-17  -6.77239866553391E-11   1.45463663768551E-13   8.00000000000000E-01   8.00000000000000E-01
      0.00000000000000E+00  -1.08174384081885E-14  -6.75956327393000E-11   2.07549678574442E-17  -6.76064294227403E-11
      2.04250672248356E-13   8.00000000000000E-01   8.00000000000000E-01   0.00000000000000E+00  -1.60082891157480E-15
     -1.06290938872483E-11   2.07550651584489E-17  -1.06306739610947E-11   1.81102027815637E-13   0.00000000000000E+00
      0.00000000000000E+00   0.00000000000000E+00  -6.30146137327762E-12   3.37724356238536E-10   8.48408145630791E-07
      8.48739568525657E-07  -1.88225730997196E-13  -1.70000000000000E+01  -1.70000000000000E+01   0.00000000000000E+00
     -8.02105227545218E-08  -2.00671552511870E-14  -7.67742991645050E-07  -8.47953534466727E-07  -4.95674073667099E-13
      8.00000000000000E-01   8.00000000000000E-01   0.00000000000000E+00  -3.16724924958523E-13  -6.39756264716157E-10
      2.07549709154485E-17  -6.40072968886144E-10   1.53083440831751E-13
      3.69993434906006E-10
      8.00000000000000E-01   8.00000000000000E-01   0.00000000000000E+00  -8.17843433737194E-15  -8.17248745604504E-11
      2.07548851197635E-17  -8.17330322399026E-11   1.45463657755063E-13   8.00000000000000E-01   8.00000000000000E-01
      0.00000000000000E+00  -8.19131621559221E-15  -8.16031397912022E-11   2.07547911174380E-17  -8.16113103526266E-11
      2.04250680658797E-13   8.00000000000000E-01   8.00000000000000E-01   0.00000000000000E+00  -1.17659242595976E-15
     -1.27201777608563E-11   2.07551435882391E-17  -1.27213335981387E-11   1.81102026830489E-13   0.00000000000000E+00
      0.00000000000000E+00   0.00000000000000E+00  -6.43064628276490E-12   2.15241494899487E-10   8.41677158685842E-07
      8.41885969534459E-07  -1.88218452029200E-13  -1.70000000000000E+01  -1.70000000000000E+01   0.00000000000000E+00
     -7.26351428703708E-08  -2.00672874324935E-14  -7.67997332659022E-07  -8.40632495596680E-07  -4.95678256291581E-13
      8.00000000000000E-01   8.00000000000000E-01   0.00000000000000E+00  -2.75989300602232E-13  -1.07713229304600E-09
      2.07550567825733E-17  -1.07740826159154E-09   1.53080343076431E-13
      4.11045987129211E-10
      8.00000000000000E-01   8.00000000000000E-01   0.00000000000000E+00  -6.18408924641705E-15  -8.96139907696951E-11
      2.07550337146465E-17  -8.96201541039078E-11   1.45463652208328E-13   8.00000000000000E-01   8.00000000000000E-01
      0.00000000000000E+00  -6.23607835972913E-15  -8.94908950042452E-11   2.07552352654899E-17  -8.94971103273697E-11
      2.04250689671620E-13   8.00000000000000E-01   8.00000000000000E-01   0.00000000000000E+00  -9.67433324735752E-16
     -1.38807675966097E-11   2.07548873643142E-17  -1.38817142750470E-11   1.81102025932521E-13   0.00000000000000E+00
      0.00000000000000E+00   0.00000000000000E+00  -6.50748165207845E-12   1.54466684171273E-10   8.36528329467653E-07
      8.36676288670172E-07  -1.88213424622756E-13  -1.70000000000000E+01  -1.70000000000000E+01   0.00000000000000E+00
     -6.70843160311556E-08  -2.00673776842718E-14  -7.68035419748607E-07  -8.35119755847141E-07  -4.95681124044442E-13
      8.00000000000000E-01   8.00000000000000E-01   0.00000000000000E+00  -2.41865853275967E-13  -1.36329199922984E-09
      2.07549086449053E-17  -1.36353384432821E-09   1.53078180854729E-13
      4.72624815464020E-10
      8.00000000000000E-01   8.00000000000000E-01   0.00000000000000E+00  -3.28368375733232E-15  -9.73307206927197E-11
      2.07550190837657E-17  -9.73339836214580E-11   1.45463642573428E-13   8.00000000000000E-01   8.00000000000000E-01
      0.00000000000000E+00  -3.28893881556868E-15  -9.72115958706974E-11   2.07552923440574E-17  -9.72148640542207E-11
      2.04250708140943E-13   8.00000000000000E-01   8.00000000000000E-01   0.00000000000000E+00  -5.35153244718678E-16
     -1.49860156601236E-11   2.07550563034798E-17  -1.49865300583120E-11   1.81102024385985E-13   0.00000000000000E+00
      0.00000000000000E+00   0.00000000000000E+00  -6.59508635227477E-12   9.43217330065298E-11   8.28684266565693E-07
      8.28771993212347E-07  -1.88206514564507E-13  -1.70000000000000E+01  -1.70000000000000E+01   0.00000000000000E+00
     -5.89217693101870E-08  -2.00674992984994E-14  -7.67923315081380E-07  -8.26845104459066E-07  -4.95685003220618E-13
      8.00000000000000E-01   8.00000000000000E-01   0.00000000000000E+00  -1.85485457765062E-13  -1.71716791084248E-09
      2.07552731774436E-17  -1.71735337554498E-09   1.53075142684769E-13
      5.64993057966232E-10
      8.00000000000000E-01   8.00000000000000E-01   0.00000000000000E+00   7.54083256911505E-16  -1.00209339945825E-10
      2.07551164705659E-17  -1.00208565107451E-10   1.45463626155409E-13   8.00000000000000E-01   8.00000000000000E-01
      0.00000000000000E+00   8.60781039222300E-16  -1.00114431586545E-10   2.07552833690316E-17  -1.00113550050223E-10
      2.04250747460808E-13   8.00000000000000E-01   8.00000000000000E-01   0.00000000000000E+00   1.26351987472863E-16
     -1.53126599496096E-11   2.07550322885285E-17  -1.53125128425898E-11   1.81102021773322E-13   0.00000000000000E+00
      0.00000000000000E+00   0.00000000000000E+00  -6.66559579926600E-12   4.53426564138508E-11   8.16748293821355E-07
      8.16786970881970E-07  -1.88197437400112E-13  -1.70000000000000E+01  -1.70000000000000E+01   0.00000000000000E+00
     -4.70075496891784E-08  -2.00676518628591E-14  -7.67501897113577E-07  -8.14509466870408E-07  -4.95689893911390E-13
      8.00000000000000E-01   8.00000000000000E-01   0.00000000000000E+00  -9.30614703152469E-14  -2.06177634284277E-09
      2.07552205227039E-17  -2.06186938355787E-09   1.53070935921963E-13
      6.34269239842892E-10
      8.00000000000000E-01   8.00000000000000E-01   0.00000000000000E+00   3.36989977651898E-15  -9.62242331679131E-11
      2.07551736224440E-17  -9.62208425129630E-11   1.45463613116323E-13   8.00000000000000E-01   8.00000000000000E-01
      0.00000000000000E+00   3.46580058500770E-15  -9.61617057596386E-11   2.07555492390845E-17  -9.61582192035044E-11
      2.04250785905628E-13   8.00000000000000E-01   8.00000000000000E-01   0.00000000000000E+00   5.90425741559106E-16
     -1.46252235916126E-11   2.07551093649801E-17  -1.46246124107616E-11   1.81102019711100E-13   0.00000000000000E+00
      0.00000000000000E+00   0.00000000000000E+00  -6.65710043335030E-12   2.67601423948612E-11   8.07753315227594E-07
      8.07773418269556E-07  -1.88191552751579E-13  -1.70000000000000E+01  -1.70000000000000E+01   0.00000000000000E+00
     -3.83429980738978E-08  -2.00677436205441E-14  -7.67057159626252E-07  -8.05400177767894E-07  -4.95692849529794E-13
      8.00000000000000E-01   8.00000000000000E-01   0.00000000000000E+00  -2.03494981473791E-14  -2.16621649878536E-09
      2.07550120326527E-17  -2.16623682752850E-09   1.53067983548322E-13
      7.38183512657881E-10
      8.00000000000000E-01   8.00000000000000E-01   0.00000000000000E+00   6.26960407664145E-15  -8.24317933330605E-11
      2.07548252245953E-17  -8.24255029741586E-11   1.45463594006512E-13   8.00000000000000E-01   8.00000000000000E-01
      0.00000000000000E+00   6.24871788501039E-15  -8.24300550160712E-11   2.07555072183474E-17  -8.24237855426790E-11
      2.04250856576638E-13   8.00000000000000E-01   8.00000000000000E-01   0.00000000000000E+00   9.74770275025191E-16
     -1.24211238932763E-11   2.07551114514701E-17  -1.24201283678898E-11   1.81102016700411E-13   0.00000000000000E+00
      0.00000000000000E+00   0.00000000000000E+00  -6.46823707176698E-12   1.23596388159558E-11   7.94427834175320E-07
      7.94433725577065E-07  -1.88184046651637E-13  -1.70000000000000E+01  -1.70000000000000E+01   0.00000000000000E+00
     -2.58998313731570E-08  -2.00678466742774E-14  -7.66272976670463E-07  -7.92172828111467E-07  -4.95696183976821E-13
      8.00000000000000E-01   8.00000000000000E-01   0.00000000000000E+00   7.63909160706679E-14  -2.08370446038417E-09
      2.07549269513663E-17  -2.08362804871317E-09   1.53063763344897E-13
      8.16119217269123E-10
      8.00000000000000E-01   8.00000000000000E-01   0.00000000000000E+00   7.65600054277139E-15  -6.75777173470059E-11
      2.07550419445169E-17  -6.75700405914212E-11   1.45463580931954E-13   8.00000000000000E-01   8.00000000000000E-01
      0.00000000000000E+00   7.63835922638691E-15  -6.76204680371120E-11   2.07552259591545E-17  -6.76128089226597E-11
      2.04250918557768E-13   8.00000000000000E-01   8.00000000000000E-01   0.00000000000000E+00   1.13800864151861E-15
     -1.00986532243522E-11   2.07551333937728E-17  -1.00974944605773E-11   1.81102014644258E-13   0.00000000000000E+00
      0.00000000000000E+00   0.00000000000000E+00  -6.20035745756660E-12   7.25176999304907E-12   7.84755716650229E-07
      7.84756768062764E-07  -1.88179355798000E-13  -1.70000000000000E+01  -1.70000000000000E+01   0.00000000000000E+00
     -1.71289416213387E-08  -2.00678981411212E-14  -7.65625774785554E-07  -7.82754736474790E-07  -4.95697858802831E-13
      8.00000000000000E-01   8.00000000000000E-01   0.00000000000000E+00   1.35501223033052E-13  -1.85688676597724E-09
      2.07549929653574E-17  -1.85675124399922E-09   1.53060700466853E-13
      9.33022774185985E-10
      8.00000000000000E-01   8.00000000000000E-01   0.00000000000000E+00   8.43464587151947E-15  -4.18128817224787E-11
      2.07547721876524E-17  -4.18044263218350E-11   1.45463564754350E-13   8.00000000000000E-01   8.00000000000000E-01
      0.00000000000000E+00   8.40808824970995E-15  -4.19021203468736E-11   2.07547779733865E-17  -4.18936915038459E-11
      2.04251023033632E-13   8.00000000000000E-01   8.00000000000000E-01   0.00000000000000E+00   1.17766023014169E-15
     -6.11307539063104E-12   2.07550691452389E-17  -6.11187697533175E-12   1.81102012094721E-13   0.00000000000000E+00
      0.00000000000000E+00   0.00000000000000E+00  -5.57513915659492E-12   3.58116781221841E-12   7.71228301859554E-07
      7.71226307888209E-07  -1.88173599455692E-13  -1.70000000000000E+01  -1.70000000000000E+01   0.00000000000000E+00
     -5.20126207161017E-09  -2.00679375639257E-14  -7.64599995339843E-07  -7.69801277479390E-07  -4.95699155650524E-13
      8.00000000000000E-01   8.00000000000000E-01   0.00000000000000E+00   1.89510700458151E-13  -1.33540994547235E-09
      2.07550825509263E-17  -1.33522041401681E-09   1.53056155223512E-13
      1.02070044187363E-09
      8.00000000000000E-01   8.00000000000000E-01   0.00000000000000E+00   8.10582911749150E-15  -2.21233263442206E-11
      2.07549921080792E-17  -2.21151997601110E-11   1.45463555857449E-13   8.00000000000000E-01   8.00000000000000E-01
      0.00000000000000E+00   8.12981686187908E-15  -2.22266188558496E-11   2.07548392339799E-17  -2.22184682841485E-11
      2.04251108461524E-13   8.00000000000000E-01   8.00000000000000E-01   0.00000000000000E+00   1.09907256143185E-15
     -3.08778567780374E-12   2.07550217417745E-17  -3.08666585022057E-12   1.81102010680472E-13   0.00000000000000E+00
      0.00000000000000E+00   0.00000000000000E+00  -4.95787405845010E-12   2.43189827066716E-12   7.62150909098676E-07
      7.62148383122888E-07  -1.88170127266930E-13  -1.70000000000000E+01  -1.70000000000000E+01   0.00000000000000E+00
      2.56871482101302E-09  -2.00679404310861E-14  -7.63799668960008E-07  -7.61230974206935E-07  -4.95699266849224E-13
      8.00000000000000E-01   8.00000000000000E-01   0.00000000000000E+00   2.00640971209029E-13  -8.70189243784949E-10