DF-ISE text

Info {
  version   = 1.0
  type      = xyplot
  datasets  = [
    "time"
    "Ntop OuterVoltage" "Ntop InnerVoltage" "Ntop QuasiFermiPotential" "Ntop DisplacementCurrent" "Ntop eCurrent"
    "Ntop hCurrent" "Ntop TotalCurrent" "Ntop Charge" "Ptop OuterVoltage" "Ptop InnerVoltage"
    "Ptop QuasiFermiPotential" "Ptop DisplacementCurrent" "Ptop eCurrent" "Ptop hCurrent" "Ptop TotalCurrent"
    "Ptop Charge" "Pbot OuterVoltage" "Pbot InnerVoltage" "Pbot QuasiFermiPotential" "Pbot DisplacementCurrent"
    "Pbot eCurrent" "Pbot hCurrent" "Pbot TotalCurrent" "Pbot Charge" ]
  functions = [
    Time
    OuterVoltage InnerVoltage QuasiFermiPotential DisplacementCurrent eCurrent
    hCurrent TotalCurrent Charge OuterVoltage InnerVoltage
    QuasiFermiPotential DisplacementCurrent eCurrent hCurrent TotalCurrent
    Charge OuterVoltage InnerVoltage QuasiFermiPotential DisplacementCurrent
    eCurrent hCurrent TotalCurrent Charge ]
}

Data {
      5.00000000000000E-13
      8.00000000000000E-01   8.00000000000000E-01   0.00000000000000E+00   1.05772353607772E-14   1.17639542533289E-11
     -1.09965334801508E-11   7.77998008538867E-13   2.34224766837385E-13   0.00000000000000E+00   0.00000000000000E+00
      0.00000000000000E+00  -1.23465351092269E-13  -1.97157898427933E-16   1.75458770619525E-09   1.75446404368626E-09
     -6.21801123148893E-14  -4.50000000000000E+01  -4.50000000000000E+01   0.00000000000000E+00  -6.51853608585798E-13
      2.19331510879192E-11  -1.77652333917413E-09  -1.75524204169479E-09  -1.72044654522496E-13
      1.25000000000000E-12
      8.00000000000000E-01   8.00000000000000E-01   0.00000000000000E+00   1.64164256259147E-13   5.36352252058775E-11
     -5.07413450890553E-11   3.05804437308130E-12   2.34224766837993E-13   0.00000000000000E+00   0.00000000000000E+00
      0.00000000000000E+00   4.43092273456647E-14  -1.97157898424262E-16   1.75633092850632E-09   1.75637504057577E-09
     -6.21801123139243E-14  -4.50000000000000E+01  -4.50000000000000E+01   0.00000000000000E+00  -3.74820395384108E-12
      1.01206610878844E-10  -1.85689149187385E-09  -1.75943308494885E-09  -1.72044654524068E-13
      2.37500000000000E-12
      8.00000000000000E-01   8.00000000000000E-01   0.00000000000000E+00   1.27337293032206E-12   4.48455327111581E-10
     -4.19838883492733E-10   2.98898165491699E-11   2.34224766846850E-13   0.00000000000000E+00   0.00000000000000E+00
      0.00000000000000E+00   1.65511463301983E-12  -1.97157898380990E-16   1.77770088835609E-09   1.77935580583121E-09
     -6.21801122994648E-14  -4.50000000000000E+01  -4.50000000000000E+01   0.00000000000000E+00  -4.06056068898427E-11
      8.37169844937881E-10  -2.60580986042842E-09  -1.80924562238038E-09  -1.72044654547385E-13
      4.06250000000000E-12
      8.00000000000000E-01   8.00000000000000E-01   0.00000000000000E+00   1.91429266650420E-11   6.96841720844297E-09
     -6.36905303018064E-09   6.18507104927370E-10   2.34224767107063E-13   0.00000000000000E+00   0.00000000000000E+00
      0.00000000000000E+00   2.45161581245845E-11  -1.97157897390105E-16   2.26909326850050E-09   2.29360922946719E-09
     -6.21801118618439E-14  -4.50000000000000E+01  -4.50000000000000E+01   0.00000000000000E+00  -8.56763881636623E-10
      1.26933868649804E-08  -1.47487393177383E-08  -2.91211633439455E-09  -1.72044655245219E-13
      6.59375000000000E-12
      8.00000000000000E-01   8.00000000000000E-01   0.00000000000000E+00   3.81327681000498E-10   1.45108129184994E-07
     -1.27460052227561E-07   1.80294046384336E-08   2.34224778198104E-13   0.00000000000000E+00   0.00000000000000E+00
      0.00000000000000E+00   4.94711531084513E-10  -1.97157867133243E-16   1.72594852893863E-08   1.77541966233130E-08
     -6.21800927101980E-14  -4.50000000000000E+01  -4.50000000000000E+01   0.00000000000000E+00  -2.51818118937706E-08
      2.53800990058401E-07  -2.64402779426377E-07  -3.57836012617465E-08  -1.72044685487906E-13
      1.03906250000000E-11
      8.00000000000000E-01   8.00000000000000E-01   0.00000000000000E+00   3.18738124503440E-09   1.30102474903351E-06
     -1.06087958278887E-06   2.43332547489679E-07   2.34225013360650E-13   0.00000000000000E+00   0.00000000000000E+00
      0.00000000000000E+00   4.09615622895225E-09  -1.97157468293874E-16   2.14538081922735E-07   2.18634237954529E-07
     -6.21796809178200E-14  -4.50000000000000E+01  -4.50000000000000E+01   0.00000000000000E+00  -3.40258877667897E-07
      2.10882849922010E-06  -2.23053640699641E-06  -4.61966785444208E-07  -1.72045332442830E-13
      1.60859375000000E-11
      8.00000000000000E-01   8.00000000000000E-01   0.00000000000000E+00   1.86422710844875E-09   1.16378678934823E-06
     -5.67699477395114E-07   5.97951539061563E-07   2.34226247854965E-13   0.00000000000000E+00   0.00000000000000E+00
      0.00000000000000E+00   1.91878072915254E-09  -1.97156864329732E-16   5.11460476576879E-07   5.13379257108875E-07
     -6.21775645910382E-14  -4.50000000000000E+01  -4.50000000000000E+01   0.00000000000000E+00  -8.16078431351023E-07
      1.11120765666289E-06  -1.40646002148230E-06  -1.11133079617043E-06  -1.72048683263929E-13
      2.46289062500000E-11
      8.00000000000000E-01   8.00000000000000E-01   0.00000000000000E+00   2.51171970554801E-10   7.96935552496145E-07
     -1.41816691131873E-08   7.83005055353513E-07   2.34229329675761E-13   0.00000000000000E+00   0.00000000000000E+00
      0.00000000000000E+00  -3.08422200274099E-10  -1.97156689618846E-16   5.94103593784563E-07   5.93795171387132E-07
     -6.21727579679644E-14  -4.50000000000000E+01  -4.50000000000000E+01   0.00000000000000E+00  -9.96991120476907E-07
      2.05905100960768E-09  -3.81868157273343E-07  -1.37680022674064E-06  -1.72056571707796E-13
      3.74433593750000E-11
      8.00000000000000E-01   8.00000000000000E-01   0.00000000000000E+00   1.81511065193791E-10   8.59326445891590E-07
     -1.19590950191495E-08   8.47548861937634E-07   2.34234790209807E-13   0.00000000000000E+00   0.00000000000000E+00
      0.00000000000000E+00  -2.31350611342203E-10  -1.97156809017250E-16   5.29987756792774E-07   5.29756405984275E-07
     -6.21655973588071E-14  -4.50000000000000E+01  -4.50000000000000E+01   0.00000000000000E+00  -9.72754019938047E-07
     -6.25635283011752E-15  -4.04551241727510E-07  -1.37730526792191E-06  -1.72069192851001E-13
      5.66650390625000E-11
      8.00000000000000E-01   8.00000000000000E-01   0.00000000000000E+00   1.23269340006234E-10   9.24626849925810E-07
     -1.03597083050841E-08   9.14390410960733E-07   2.34243726579496E-13   0.00000000000000E+00   0.00000000000000E+00
      0.00000000000000E+00  -1.65700120405583E-10  -1.97156941161781E-16   4.58044689230296E-07   4.57878988912733E-07
     -6.21561750119638E-14  -4.50000000000000E+01  -4.50000000000000E+01   0.00000000000000E+00  -9.37803966678984E-07
     -6.25691821913001E-15  -4.34465426937567E-07  -1.37226939987347E-06  -1.72087551567533E-13
      8.54975585937500E-11
      8.00000000000000E-01   8.00000000000000E-01   0.00000000000000E+00   7.31979785817120E-11   9.85361586117828E-07
     -8.34930512622398E-09   9.77085478970186E-07   2.34258092998278E-13   0.00000000000000E+00   0.00000000000000E+00
      0.00000000000000E+00  -1.08434475175652E-10  -1.97157074120086E-16   3.83881118050006E-07   3.83772683377673E-07
     -6.21441634950848E-14  -4.50000000000000E+01  -4.50000000000000E+01   0.00000000000000E+00  -8.92622846917203E-07
     -6.25751405730407E-15  -4.68235309173139E-07  -1.36085816234786E-06  -1.72113929503193E-13
      1.28746337890625E-10
      8.00000000000000E-01   8.00000000000000E-01   0.00000000000000E+00   3.35709342471917E-11   1.03165387543167E-06
     -6.03705782186307E-09   1.02565038854406E-06   2.34280598620473E-13   0.00000000000000E+00   0.00000000000000E+00
      0.00000000000000E+00  -6.27854320892982E-11  -1.97157191780979E-16   3.14665625828056E-07   3.14602840198810E-07
     -6.21292657219091E-14  -4.50000000000000E+01  -4.50000000000000E+01   0.00000000000000E+00  -8.38231014015606E-07
     -6.25836116732271E-15  -5.02022208468900E-07  -1.34025322874287E-06  -1.72151332898563E-13
      1.61182922363281E-10
      8.00000000000000E-01   8.00000000000000E-01   0.00000000000000E+00   1.74556513095643E-11   1.04652648233726E-06
     -4.73837165758644E-09   1.04180556633098E-06   2.34297697918018E-13   0.00000000000000E+00   0.00000000000000E+00
      0.00000000000000E+00  -4.44980747231297E-11  -1.97157241637897E-16   2.81836150160759E-07   2.81791651888879E-07
     -6.21197155238478E-14  -4.50000000000000E+01  -4.50000000000000E+01   0.00000000000000E+00  -8.05402750410379E-07
     -6.25896587795272E-15  -5.18194461550518E-07  -1.32359721821986E-06  -1.72177982394170E-13
      2.09837799072266E-10
      8.00000000000000E-01   8.00000000000000E-01   0.00000000000000E+00   3.95417965534589E-12   1.05309148147391E-06
     -3.29585061725758E-09   1.04979958503631E-06   2.34323173965560E-13   0.00000000000000E+00   0.00000000000000E+00
      0.00000000000000E+00  -2.97060757369967E-11  -1.97157283019780E-16   2.47916856096424E-07   2.47887149823529E-07
     -6.21070166871170E-14  -4.50000000000000E+01  -4.50000000000000E+01   0.00000000000000E+00  -7.64489765491491E-07
     -6.25983303371756E-15  -5.33196963108512E-07  -1.29768673485984E-06  -1.72216157278444E-13
      2.46328956604004E-10
      8.00000000000000E-01   8.00000000000000E-01   0.00000000000000E+00  -1.16431498567475E-12   1.05115924535388E-06
     -2.51602060153799E-09   1.04864206043735E-06   2.34342008423395E-13   0.00000000000000E+00   0.00000000000000E+00
      0.00000000000000E+00  -2.44332468779521E-11  -1.97157298081181E-16   2.29184583088832E-07   2.29160149644797E-07
     -6.20984359096739E-14  -4.50000000000000E+01  -4.50000000000000E+01   0.00000000000000E+00  -7.38326061047069E-07
     -6.26045622753157E-15  -5.39476142774628E-07  -1.27780221008215E-06  -1.72243572513721E-13
      3.01065692901611E-10
      8.00000000000000E-01   8.00000000000000E-01   0.00000000000000E+00  -4.79651267283370E-12   1.04371373061889E-06
     -1.68125091172450E-09   1.04202768319449E-06   2.34369739317633E-13   0.00000000000000E+00   0.00000000000000E+00
      0.00000000000000E+00  -2.10631036465709E-11  -1.97157308293033E-16   2.05592346942485E-07   2.05571283641681E-07
     -6.20867166607799E-14  -4.50000000000000E+01  -4.50000000000000E+01   0.00000000000000E+00  -7.03474311550138E-07
     -6.26135334286949E-15  -5.44124649024683E-07  -1.24759896683617E-06  -1.72283022656855E-13
      3.42118245124817E-10
      8.00000000000000E-01   8.00000000000000E-01   0.00000000000000E+00  -5.68670938629408E-12   1.03675279128476E-06
     -1.24812285167163E-09   1.03549898172370E-06   2.34390145932201E-13   0.00000000000000E+00   0.00000000000000E+00
      0.00000000000000E+00  -2.05276994652567E-11  -1.97157311505431E-16   1.89320784356426E-07   1.89300256459803E-07
     -6.20787357603678E-14  -4.50000000000000E+01  -4.50000000000000E+01   0.00000000000000E+00  -6.79632367412386E-07
     -6.26199904033855E-15  -5.45166864509119E-07  -1.22479923818350E-06  -1.72311410171833E-13
      4.03697073459625E-10
      8.00000000000000E-01   8.00000000000000E-01   0.00000000000000E+00  -5.66914588813606E-12   1.02649908441833E-06
     -8.02306008198861E-10   1.02569110926424E-06   2.34420228038379E-13   0.00000000000000E+00   0.00000000000000E+00
      0.00000000000000E+00  -2.11098363744346E-11  -1.97157316276424E-16   1.64883450537912E-07   1.64862340504381E-07
     -6.20680068579947E-14  -4.50000000000000E+01  -4.50000000000000E+01   0.00000000000000E+00  -6.46025380889640E-07
     -6.26292739764873E-15  -5.44528062616053E-07  -1.19055344976862E-06  -1.72352221180384E-13
      4.49881194710732E-10
      8.00000000000000E-01   8.00000000000000E-01   0.00000000000000E+00  -5.11214916634039E-12   1.01966296755450E-06
     -5.80864824132311E-10   1.01907699058121E-06   2.34442456920187E-13   0.00000000000000E+00   0.00000000000000E+00
      0.00000000000000E+00  -2.20618488782819E-11  -1.97157322680375E-16   1.45849454848771E-07   1.45827392802735E-07
     -6.20609574500269E-14  -4.50000000000000E+01  -4.50000000000000E+01   0.00000000000000E+00  -6.21927232838582E-07
     -6.26359341740353E-15  -5.42977144281768E-07  -1.16490438338394E-06  -1.72381499470159E-13
      4.84519285649061E-10
      8.00000000000000E-01   8.00000000000000E-01   0.00000000000000E+00  -4.56871737226101E-12   1.01520692870072E-06
     -4.58353163834584E-10   1.01474400681951E-06   2.34458989395115E-13   0.00000000000000E+00   0.00000000000000E+00
      0.00000000000000E+00  -2.28780211469973E-11  -1.97157330181220E-16   1.30990617855295E-07   1.30967739636990E-07
     -6.20562540614310E-14  -4.50000000000000E+01  -4.50000000000000E+01   0.00000000000000E+00  -6.04252892995245E-07
     -6.26407647039602E-15  -5.41458847197179E-07  -1.14571174645650E-06  -1.72402735333684E-13
      5.36476422056556E-10
      8.00000000000000E-01   8.00000000000000E-01   0.00000000000000E+00  -3.69103493489150E-12   1.00966768168317E-06
     -3.23850088120978E-10   1.00934014056011E-06   2.34483634472210E-13   0.00000000000000E+00   0.00000000000000E+00
      0.00000000000000E+00  -2.40953751387499E-11  -1.97157346799876E-16   1.07696502110605E-07   1.07672406538309E-07
     -6.20501821954598E-14  -4.50000000000000E+01  -4.50000000000000E+01   0.00000000000000E+00  -5.78180289168902E-07
     -6.26477514259698E-15  -5.38832251664747E-07  -1.11701254709842E-06  -1.72433452276751E-13
      6.14412126667798E-10
      8.00000000000000E-01   8.00000000000000E-01   0.00000000000000E+00  -2.41394443399610E-12   1.00382328752128E-06
     -1.96509429573885E-10   1.00362436414727E-06   2.34520421535990E-13   0.00000000000000E+00   0.00000000000000E+00
      0.00000000000000E+00  -2.57782111686000E-11  -1.97157385338392E-16   7.05901925578667E-08   7.05644141495408E-08
     -6.20434081959379E-14  -4.50000000000000E+01  -4.50000000000000E+01   0.00000000000000E+00  -5.39746307212011E-07
     -6.26576583610425E-15  -5.34442464819033E-07  -1.07418877829681E-06  -1.72477013340051E-13
      6.72863905126229E-10
      8.00000000000000E-01   8.00000000000000E-01   0.00000000000000E+00  -1.56692095183128E-12   1.00118537483148E-06
     -1.38773895997139E-10   1.00104503401453E-06   2.34547990005376E-13   0.00000000000000E+00   0.00000000000000E+00
      0.00000000000000E+00  -2.68455729112105E-11  -1.97157425569562E-16   4.12379796362811E-08   4.12111338662124E-08
     -6.20402597569104E-14  -4.50000000000000E+01  -4.50000000000000E+01   0.00000000000000E+00  -5.11292115637897E-07
     -6.26646431807548E-15  -5.30964045976381E-07  -1.04225616788074E-06  -1.72507730248466E-13
      7.60541572813876E-10
      8.00000000000000E-01   8.00000000000000E-01   0.00000000000000E+00  -5.42287343643163E-13   9.99495449592287E-07
     -8.59350040913939E-11   9.99408972300852E-07   2.34589516023881E-13   0.00000000000000E+00   0.00000000000000E+00
      0.00000000000000E+00  -2.80896924235867E-11  -1.97157503552634E-16  -4.72754509333768E-09  -4.75563498291877E-09
     -6.20388115781561E-14  -4.50000000000000E+01  -4.50000000000000E+01   0.00000000000000E+00  -4.69021465690325E-07
     -6.26744136523523E-15  -5.25631865360166E-07  -9.94653337317932E-07  -1.72550704445725E-13
      8.92058074345346E-10
      8.00000000000000E-01   8.00000000000000E-01   0.00000000000000E+00   3.99894659699970E-13   1.00052740483158E-06
     -4.68339303285373E-11   1.00048097079591E-06   2.34652584107330E-13   0.00000000000000E+00   0.00000000000000E+00
      0.00000000000000E+00  -2.91237741175766E-11  -1.97157646093016E-16  -7.65609026583740E-08  -7.65900266296492E-08
     -6.20443224034766E-14  -4.50000000000000E+01  -4.50000000000000E+01   0.00000000000000E+00  -4.06329343815198E-07
     -6.26874967147585E-15  -5.17561594082312E-07  -9.23890944166260E-07  -1.72608261703855E-13
      9.90695450493949E-10
      8.00000000000000E-01   8.00000000000000E-01   0.00000000000000E+00   6.02099929079198E-13   1.00279559557848E-06
     -3.30505567192356E-11   1.00276314712169E-06   2.34700704996831E-13   0.00000000000000E+00   0.00000000000000E+00
      0.00000000000000E+00  -2.92040487041433E-11  -1.97157740282733E-16  -1.31427057692586E-07  -1.31456261938448E-07
     -6.20546608650275E-14  -4.50000000000000E+01  -4.50000000000000E+01   0.00000000000000E+00  -3.59790950489372E-07
     -6.26960830545430E-15  -5.11515928424268E-07  -8.71306885183247E-07  -1.72646044131803E-13
      1.06467348260540E-09
      8.00000000000000E-01   8.00000000000000E-01   0.00000000000000E+00   4.13463700449454E-13   1.00451292010700E-06
     -2.67208088019287E-11   1.00448661276190E-06   2.34737305203131E-13   0.00000000000000E+00   0.00000000000000E+00
      0.00000000000000E+00  -2.88073453220209E-11  -1.97157761355754E-16  -1.72319826551444E-07  -1.72348634093924E-07
     -6.20659268809047E-14  -4.50000000000000E+01  -4.50000000000000E+01   0.00000000000000E+00  -3.25138564467488E-07
     -6.27018396964978E-15  -5.06999407930305E-07  -8.32137978667977E-07  -1.72671378322225E-13
      1.17564053077258E-09
      8.00000000000000E-01   8.00000000000000E-01   0.00000000000000E+00  -5.72946439889541E-13   1.00549198098043E-06
     -2.05733806528968E-11   1.00547083465333E-06   2.34792940804338E-13   0.00000000000000E+00   0.00000000000000E+00
      0.00000000000000E+00  -2.72401228458497E-11  -1.97157552913282E-16  -2.31615161979931E-07  -2.31642402299934E-07
     -6.20883463707152E-14  -4.50000000000000E+01  -4.50000000000000E+01   0.00000000000000E+00  -2.73571398654463E-07
     -6.27093865670358E-15  -5.00257027427996E-07  -7.73828432353398E-07  -1.72704594433623E-13
      1.25886581689796E-09
      8.00000000000000E-01   8.00000000000000E-01   0.00000000000000E+00  -2.01773933046965E-12   1.00358296001634E-06
     -1.75431045020842E-11   1.00356339917250E-06   2.34835078984504E-13   0.00000000000000E+00   0.00000000000000E+00
      0.00000000000000E+00  -2.50860307565877E-11  -1.97157005192708E-16  -2.73066291419265E-07  -2.73091377647178E-07
     -6.21093124569886E-14  -4.50000000000000E+01  -4.50000000000000E+01   0.00000000000000E+00  -2.35246326363146E-07
     -6.27141966588191E-15  -4.95225688890757E-07  -7.30472021525323E-07  -1.72725766527515E-13
      1.38370374608604E-09
      8.00000000000000E-01   8.00000000000000E-01   0.00000000000000E+00  -5.62534121061591E-12   9.92721008805339E-07
     -1.43381931253550E-11   9.92701045271003E-07   2.34898259585199E-13   0.00000000000000E+00   0.00000000000000E+00
      0.00000000000000E+00  -1.98250175086660E-11  -1.97154766101814E-16  -3.26513028217762E-07  -3.26532853432425E-07
     -6.21466757732254E-14  -4.50000000000000E+01  -4.50000000000000E+01   0.00000000000000E+00  -1.78447996644767E-07
     -6.27200620922713E-15  -4.87720188921802E-07  -6.66168191838575E-07  -1.72751583811974E-13
      1.47733219297710E-09
      8.00000000000000E-01   8.00000000000000E-01   0.00000000000000E+00  -9.56080069835821E-12   9.75367927581749E-07
     -1.25914635938861E-11   9.75345775317457E-07   2.34944886495282E-13   0.00000000000000E+00   0.00000000000000E+00
      0.00000000000000E+00  -1.41007698592268E-11  -1.97151086977278E-16  -3.56649229972099E-07  -3.56663330939109E-07
     -6.21785589013993E-14  -4.50000000000000E+01  -4.50000000000000E+01   0.00000000000000E+00  -1.36558612904519E-07
     -6.27234120900910E-15  -4.82123825201488E-07  -6.18682444378349E-07  -1.72766327593883E-13
      1.61777486331368E-09
      8.00000000000000E-01   8.00000000000000E-01   0.00000000000000E+00  -1.71232660628419E-11   9.28598346434454E-07
     -1.05758765870145E-11   9.28570647291805E-07   2.35011364473258E-13   0.00000000000000E+00   0.00000000000000E+00
      0.00000000000000E+00  -2.93020176261923E-12  -1.97139398512840E-16  -3.79286874726955E-07  -3.79289805125857E-07
     -6.22301620618184E-14  -4.50000000000000E+01  -4.50000000000000E+01   0.00000000000000E+00  -7.54961646551064E-08
     -6.27267930943245E-15  -4.73784671238161E-07  -5.49280842165947E-07  -1.72781202411438E-13
      1.72310686606612E-09
      8.00000000000000E-01   8.00000000000000E-01   0.00000000000000E+00  -2.34508985747632E-11   8.74516695285556E-07
     -9.38767329154823E-12   8.74483856713689E-07   2.35056607715406E-13   0.00000000000000E+00   0.00000000000000E+00
      0.00000000000000E+00   6.70508453450742E-12  -1.97122969258794E-16  -3.75178026823964E-07  -3.75171321936553E-07
     -6.22697678083836E-14  -4.50000000000000E+01  -4.50000000000000E+01   0.00000000000000E+00  -3.17361977272063E-08
     -6.27280761260575E-15  -4.67576330777125E-07  -4.99312534777139E-07  -1.72786839907021E-13
      1.88110487019478E-09
      8.00000000000000E-01   8.00000000000000E-01   0.00000000000000E+00  -3.18986180169578E-11   7.62939008072667E-07
     -7.94501425009391E-12   7.62899164440400E-07   2.35112717960694E-13   0.00000000000000E+00   0.00000000000000E+00
      0.00000000000000E+00   2.04738675522161E-11  -1.97078536306744E-16  -3.33455936528999E-07  -3.33435462858526E-07
     -6.23257011136055E-14  -4.50000000000000E+01  -4.50000000000000E+01   0.00000000000000E+00   2.88829780594423E-08
     -6.27281215096610E-15  -4.58346673368502E-07  -4.29463701581872E-07  -1.72787016847087E-13
      1.99960337329127E-09
      8.00000000000000E-01   8.00000000000000E-01   0.00000000000000E+00  -3.59873642908580E-11   6.60167709273854E-07
     -7.06420521176643E-12   6.60124657704352E-07   2.35142968504595E-13   0.00000000000000E+00   0.00000000000000E+00
      0.00000000000000E+00   2.82980788483438E-11  -1.97024324028635E-16  -2.77835444122732E-07  -2.77807146240908E-07
     -6.23617877829656E-14  -4.50000000000000E+01  -4.50000000000000E+01   0.00000000000000E+00   6.91796354489847E-08
     -6.27268008152389E-15  -4.51497140639750E-07  -3.82317511463445E-07  -1.72781180721630E-13
      2.17735112793601E-09
      8.00000000000000E-01   8.00000000000000E-01   0.00000000000000E+00  -3.67344884870187E-11   4.94167807226496E-07
     -5.97775093726074E-12   4.94125094987071E-07   2.35165964890182E-13   0.00000000000000E+00   0.00000000000000E+00
      0.00000000000000E+00   3.32607116435499E-11  -1.96900835890517E-16  -1.72184241636629E-07  -1.72150981121886E-07
     -6.24016414347945E-14  -4.50000000000000E+01  -4.50000000000000E+01   0.00000000000000E+00   1.19386267140435E-07
     -6.27229804348901E-15  -4.41360374733319E-07  -3.21974113865182E-07  -1.72764323455388E-13
      2.31066194391957E-09
      8.00000000000000E-01   8.00000000000000E-01   0.00000000000000E+00  -3.32330973730565E-11   3.74842302272419E-07
     -5.30872413408354E-12   3.74803760450912E-07   2.35165366535733E-13   0.00000000000000E+00   0.00000000000000E+00
      0.00000000000000E+00   3.15375986713734E-11  -1.96773471657427E-16  -8.94906869720895E-08  -8.94591495701915E-08
     -6.24189427729667E-14  -4.50000000000000E+01  -4.50000000000000E+01   0.00000000000000E+00   1.48536112961635E-07
     -6.27189216385053E-15  -4.33880717570463E-07  -2.85344610880720E-07  -1.72746423762765E-13
      2.41064505590723E-09
      8.00000000000000E-01   8.00000000000000E-01   0.00000000000000E+00  -2.89969875567286E-11   2.95407128478323E-07
     -4.87145460409285E-12   2.95373260036162E-07   2.35155684578121E-13   0.00000000000000E+00   0.00000000000000E+00
      0.00000000000000E+00   2.78844476035262E-11  -1.96660130132159E-16  -3.28720673478996E-08  -3.28441830969562E-08
     -6.24249916626856E-14  -4.50000000000000E+01  -4.50000000000000E+01   0.00000000000000E+00   1.65818721803810E-07
     -6.27153537726993E-15  -4.28347792471480E-07  -2.62529076939205E-07  -1.72730692915433E-13
      2.56061972388873E-09
      8.00000000000000E-01   8.00000000000000E-01   0.00000000000000E+00  -2.16451154541101E-11   1.98470849959459E-07
     -4.29831605726925E-12   1.98444906527948E-07   2.35128920797781E-13   0.00000000000000E+00   0.00000000000000E+00
      0.00000000000000E+00   2.05481654606763E-11  -1.96469168924789E-16   3.62585256329585E-08   3.62790736019500E-08
     -6.24246121239410E-14  -4.50000000000000E+01  -4.50000000000000E+01   0.00000000000000E+00   1.85452696509881E-07
     -6.27093684411673E-15  -4.20176670368842E-07  -2.34723980129898E-07  -1.72704308673841E-13
      2.67310072487486E-09
      8.00000000000000E-01   8.00000000000000E-01   0.00000000000000E+00  -1.62906611618807E-11   1.44056563941066E-07
     -3.92245375538505E-12   1.44036350826149E-07   2.35101242496039E-13   0.00000000000000E+00   0.00000000000000E+00
      0.00000000000000E+00   1.47939730614976E-11  -1.96316349729803E-16   7.39393164466966E-08   7.39541102234417E-08
     -6.24184093155938E-14  -4.50000000000000E+01  -4.50000000000000E+01   0.00000000000000E+00   1.96153402101281E-07
     -6.27044957911401E-15  -4.14143856880423E-07  -2.17990461049591E-07  -1.72682833180444E-13
      2.84182222635405E-09
      8.00000000000000E-01   8.00000000000000E-01   0.00000000000000E+00  -9.76704876317662E-12   8.82034846570741E-08
     -3.42684378322361E-12   8.81902907645277E-08   2.35051654388904E-13   0.00000000000000E+00   0.00000000000000E+00
      0.00000000000000E+00   7.49729145040244E-12  -1.96087155383916E-16   1.09285128700142E-07   1.09292625795505E-07
     -6.24029234893611E-14  -4.50000000000000E+01  -4.50000000000000E+01   0.00000000000000E+00   2.07720472990480E-07
     -6.26967568639406E-15  -4.05203383280837E-07  -1.97482916560033E-07  -1.72648730899543E-13
      2.96836335246344E-09
      8.00000000000000E-01   8.00000000000000E-01   0.00000000000000E+00  -6.30585774774078E-12   6.22663274354667E-08
     -3.09972578474717E-12   6.22569218519342E-08   2.35010398028780E-13   0.00000000000000E+00   0.00000000000000E+00
      0.00000000000000E+00   3.50299914313923E-12  -1.95924216774437E-16   1.22298567248252E-07   1.22302070051471E-07
     -6.23883555030654E-14  -4.50000000000000E+01  -4.50000000000000E+01   0.00000000000000E+00   2.13961605360979E-07
     -6.26906993757719E-15  -3.98520590995314E-07  -1.84558991903405E-07  -1.72622042525715E-13
      3.15817504162752E-09
      8.00000000000000E-01   8.00000000000000E-01   0.00000000000000E+00  -3.11432818519112E-12   3.96224426805081E-08
     -2.66692877758232E-12   3.96166614235453E-08   2.34945507088019E-13   0.00000000000000E+00   0.00000000000000E+00
      0.00000000000000E+00  -2.50105204024432E-13  -1.95706982030319E-16   1.27712824070463E-07   1.27712573769552E-07
     -6.23647605994855E-14  -4.50000000000000E+01  -4.50000000000000E+01   0.00000000000000E+00   2.20971627821899E-07
     -6.26813248103335E-15  -3.88300856746863E-07  -1.67329235193097E-07  -1.72580746488533E-13
      3.30053380850059E-09
      8.00000000000000E-01   8.00000000000000E-01   0.00000000000000E+00  -1.85306134260371E-12   3.05402205559071E-08
     -2.38165536630701E-12   3.05359858391982E-08   2.34895961758394E-13   0.00000000000000E+00   0.00000000000000E+00
      0.00000000000000E+00  -1.75058443520747E-12  -1.95569139450930E-16   1.24848574228950E-07   1.24846823448946E-07
     -6.23469562504800E-14  -4.50000000000000E+01  -4.50000000000000E+01   0.00000000000000E+00   2.24869714279845E-07
     -6.26741181538180E-15  -3.80252517300578E-07  -1.55382809288145E-07  -1.72549005507914E-13
      3.51407195881018E-09
      8.00000000000000E-01   8.00000000000000E-01   0.00000000000000E+00  -9.40409942416429E-13   2.29040624664507E-08
     -2.00744398429702E-12   2.29011146125240E-08   2.34822143978780E-13   0.00000000000000E+00   0.00000000000000E+00
      0.00000000000000E+00  -2.80945995448363E-12  -1.95402297951008E-16   1.15349455307253E-07   1.15346645651896E-07
     -6.23215878333645E-14  -4.50000000000000E+01  -4.50000000000000E+01   0.00000000000000E+00   2.28679814816039E-07
     -6.26631161835629E-15  -3.66927568814147E-07  -1.38247760264420E-07  -1.72500556145416E-13
      3.67422557154238E-09
      8.00000000000000E-01   8.00000000000000E-01   0.00000000000000E+00  -6.58701556778924E-13   1.95443605108301E-08
     -1.76433404288758E-12   1.95419374752305E-08   2.34767922505670E-13   0.00000000000000E+00   0.00000000000000E+00
      0.00000000000000E+00  -3.08435091613913E-12  -1.95304927761730E-16   1.06296521651460E-07   1.06293437105239E-07
     -6.23040794383568E-14  -4.50000000000000E+01  -4.50000000000000E+01   0.00000000000000E+00   2.29631036983185E-07
     -6.26547780217042E-15  -3.55466405298177E-07  -1.25835374580470E-07  -1.72463843067313E-13
      3.91445599064068E-09
      8.00000000000000E-01   8.00000000000000E-01   0.00000000000000E+00  -4.73272085853409E-13   1.59628866500168E-08
     -1.45158187401720E-12   1.59609617960569E-08   2.34689577719702E-13   0.00000000000000E+00   0.00000000000000E+00
      0.00000000000000E+00  -3.14764971825035E-12  -1.95193841770627E-16   9.19494309869447E-08   9.19462831420326E-08
     -6.22806451300747E-14  -4.50000000000000E+01  -4.50000000000000E+01   0.00000000000000E+00   2.27058406241167E-07
     -6.26423050289278E-15  -3.34965644915026E-07  -1.07907244938089E-07  -1.72408932589626E-13
      4.09462880496440E-09
      8.00000000000000E-01   8.00000000000000E-01   0.00000000000000E+00  -4.03809703019396E-13   1.38433341572919E-08
     -1.25300187641019E-12   1.38416773457124E-08   2.34633836591086E-13   0.00000000000000E+00   0.00000000000000E+00
      0.00000000000000E+00  -3.04977323306728E-12  -1.95132340190920E-16   8.12819512305000E-08   8.12789012621346E-08
     -6.22653335599438E-14  -4.50000000000000E+01  -4.50000000000000E+01   0.00000000000000E+00   2.21435793801566E-07
     -6.26331199906376E-15  -3.16556366146101E-07  -9.51205786078469E-08  -1.72368503031142E-13
      4.22975841570719E-09
      8.00000000000000E-01   8.00000000000000E-01   0.00000000000000E+00  -3.74444673545328E-13   1.24284639535281E-08
     -1.12173050274403E-12   1.24269677783518E-08   2.34594100751695E-13   0.00000000000000E+00   0.00000000000000E+00