DF-ISE text

Info {
  version   = 1.0
  type      = xyplot
  datasets  = [
    "time"
    "Ntop OuterVoltage" "Ntop InnerVoltage" "Ntop QuasiFermiPotential" "Ntop DisplacementCurrent" "Ntop eCurrent"
    "Ntop hCurrent" "Ntop TotalCurrent" "Ntop Charge" "Ptop OuterVoltage" "Ptop InnerVoltage"
    "Ptop QuasiFermiPotential" "Ptop DisplacementCurrent" "Ptop eCurrent" "Ptop hCurrent" "Ptop TotalCurrent"
    "Ptop Charge" "Pbot OuterVoltage" "Pbot InnerVoltage" "Pbot QuasiFermiPotential" "Pbot DisplacementCurrent"
    "Pbot eCurrent" "Pbot hCurrent" "Pbot TotalCurrent" "Pbot Charge" ]
  functions = [
    Time
    OuterVoltage InnerVoltage QuasiFermiPotential DisplacementCurrent eCurrent
    hCurrent TotalCurrent Charge OuterVoltage InnerVoltage
    QuasiFermiPotential DisplacementCurrent eCurrent hCurrent TotalCurrent
    Charge OuterVoltage InnerVoltage QuasiFermiPotential DisplacementCurrent
    eCurrent hCurrent TotalCurrent Charge ]
}

Data {
      5.00000000000000E-13
      8.00000000000000E-01   8.00000000000000E-01   0.00000000000000E+00   1.90807246043202E-15   7.27361838965657E-12
     -6.86996793731662E-12   4.05558524800387E-13   1.71121639905495E-13   0.00000000000000E+00   0.00000000000000E+00
      0.00000000000000E+00  -1.11626401922707E-13  -1.96738758269386E-16   1.63162910132567E-07   1.63162798309426E-07
     -4.72080767803607E-14  -1.70000000000000E+01  -1.70000000000000E+01   0.00000000000000E+00  -3.42091016919544E-13
      1.37014113126560E-11  -1.63176563188246E-07  -1.63163203867951E-07  -1.23913563125134E-13
      1.25000000000000E-12
      8.00000000000000E-01   8.00000000000000E-01   0.00000000000000E+00   1.11091984401759E-13   3.34906899127413E-11
     -3.17001464665417E-11   1.90163543060132E-12   1.71121639905985E-13   0.00000000000000E+00   0.00000000000000E+00
      0.00000000000000E+00  -8.15027085959641E-14  -1.96738758268019E-16   1.63163587406204E-07   1.63163505706757E-07
     -4.72080767800036E-14  -1.70000000000000E+01  -1.70000000000000E+01   0.00000000000000E+00  -2.01706754213705E-12
      6.32267224710125E-11  -1.63226616997115E-07  -1.63165407342187E-07  -1.23913563125981E-13
      2.37500000000000E-12
      8.00000000000000E-01   8.00000000000000E-01   0.00000000000000E+00   8.47904053667694E-13   2.80963731136515E-10
     -2.62290188107732E-10   1.95214470824511E-11   1.71121639913200E-13   0.00000000000000E+00   0.00000000000000E+00
      0.00000000000000E+00   6.56280718837249E-13  -1.96738758252200E-16   1.63171415193558E-07   1.63172071277538E-07
     -4.72080767746259E-14  -1.70000000000000E+01  -1.70000000000000E+01   0.00000000000000E+00  -2.19491317660552E-11
      5.23012485121141E-10  -1.63692656077975E-07  -1.63191592724620E-07  -1.23913563138573E-13
      4.06250000000000E-12
      8.00000000000000E-01   8.00000000000000E-01   0.00000000000000E+00   1.28486044950622E-11   4.37432647059901E-09
     -3.97900295891388E-09   4.08172116180197E-10   1.71121640127666E-13   0.00000000000000E+00   0.00000000000000E+00
      0.00000000000000E+00   9.18329051998156E-12  -1.96738757881783E-16   1.63354525349760E-07   1.63363708443541E-07
     -4.72080766117226E-14  -1.70000000000000E+01  -1.70000000000000E+01   0.00000000000000E+00  -4.63888390604789E-10
      7.93006698516765E-09  -1.71238059154284E-07  -1.63771880559721E-07  -1.23913563515942E-13
      6.59375000000000E-12
      8.00000000000000E-01   8.00000000000000E-01   0.00000000000000E+00   2.57245252378645E-10   9.13322287304103E-08
     -7.96294085547372E-08   1.19600654280517E-08   1.71121649373328E-13   0.00000000000000E+00   0.00000000000000E+00
      0.00000000000000E+00   1.84796442021772E-10  -1.96738746563363E-16   1.68942564543287E-07   1.69127360788570E-07
     -4.72080694742717E-14  -1.70000000000000E+01  -1.70000000000000E+01   0.00000000000000E+00  -1.36578015569801E-08
      1.58559661080004E-07  -3.25989285739645E-07  -1.81087426216621E-07  -1.23913579899056E-13
      1.03906250000000E-11
      8.00000000000000E-01   8.00000000000000E-01   0.00000000000000E+00   2.15985709593389E-09   8.22952699538240E-07
     -6.62774094878884E-07   1.62338461755290E-07   1.71121847874211E-13   0.00000000000000E+00   0.00000000000000E+00
      0.00000000000000E+00   1.51538798087222E-09  -1.96738598181096E-16   2.42092489669358E-07   2.43607877453492E-07
     -4.72079165907270E-14  -1.70000000000000E+01  -1.70000000000000E+01   0.00000000000000E+00  -1.85003538674639E-07
      1.31746977854999E-06  -1.53841257908413E-06  -4.05946339208782E-07  -1.23913931283483E-13
      1.60859375000000E-11
      8.00000000000000E-01   8.00000000000000E-01   0.00000000000000E+00   1.26502061416950E-09   7.55725722649267E-07
     -3.54664576775514E-07   4.02326166487922E-07   1.71122906044971E-13   0.00000000000000E+00   0.00000000000000E+00
      0.00000000000000E+00   6.43067259797828E-10  -1.96738383444335E-16   3.47422132278256E-07   3.48065199341316E-07
     -4.72071451801925E-14  -1.70000000000000E+01  -1.70000000000000E+01   0.00000000000000E+00  -4.46497506070283E-07
      6.94216008927700E-07  -9.98109868686653E-07  -7.50391365829235E-07  -1.23915760864778E-13
      2.46289062500000E-11
      8.00000000000000E-01   8.00000000000000E-01   0.00000000000000E+00   1.45675195343048E-10   5.34009274825308E-07
     -8.85838093480451E-09   5.25296569085847E-07   1.71125550432496E-13   0.00000000000000E+00   0.00000000000000E+00
      0.00000000000000E+00  -1.74587349419377E-10  -1.96738341519015E-16   3.67170356073419E-07   3.66995768527262E-07
     -4.72054561496547E-14  -1.70000000000000E+01  -1.70000000000000E+01   0.00000000000000E+00  -5.49492266304934E-07
      1.28637067659343E-09  -3.44086441984766E-07  -8.92292337613107E-07  -1.23920094282841E-13
      3.74433593750000E-11
      8.00000000000000E-01   8.00000000000000E-01   0.00000000000000E+00   9.43696784756855E-11   5.67832723719656E-07
     -7.46749262929580E-09   5.60459600768836E-07   1.71130168864576E-13   0.00000000000000E+00   0.00000000000000E+00
      0.00000000000000E+00  -1.22199906326577E-10  -1.96738410430038E-16   3.32041239572754E-07   3.31919039469689E-07
     -4.72030913982552E-14  -1.70000000000000E+01  -1.70000000000000E+01   0.00000000000000E+00  -5.40122949376936E-07
     -5.01672435796722E-15  -3.52255685844864E-07  -8.92378640238524E-07  -1.23927077466321E-13
      5.66650390625000E-11
      8.00000000000000E-01   8.00000000000000E-01   0.00000000000000E+00   5.89280849659661E-11   5.99456557710490E-07
     -6.46583433858820E-09   5.93049651456868E-07   1.71137554871027E-13   0.00000000000000E+00   0.00000000000000E+00
      0.00000000000000E+00  -8.64200084398476E-11  -1.96738483419940E-16   2.94263612302527E-07   2.94177192097349E-07
     -4.72002579596973E-14  -1.70000000000000E+01  -1.70000000000000E+01   0.00000000000000E+00  -5.23125935973877E-07
     -5.01719137640596E-15  -3.64100902563148E-07  -8.87226843554216E-07  -1.23937296911330E-13
      8.54975585937500E-11
      8.00000000000000E-01   8.00000000000000E-01   0.00000000000000E+00   3.15528019264652E-11   6.25464686466964E-07
     -5.20795580838862E-09   6.20288283460502E-07   1.71149137369810E-13   0.00000000000000E+00   0.00000000000000E+00
      0.00000000000000E+00  -5.81900663664370E-11  -1.96738555292077E-16   2.55164665102161E-07   2.55106474839056E-07
     -4.71971323639279E-14  -1.70000000000000E+01  -1.70000000000000E+01   0.00000000000000E+00  -4.97175684808706E-07
     -5.01766301245099E-15  -3.78219068473192E-07  -8.75394758299560E-07  -1.23952005005882E-13
      1.28746337890625E-10
      8.00000000000000E-01   8.00000000000000E-01   0.00000000000000E+00   1.23558865759831E-11   6.41707775210136E-07
     -3.76285180883914E-09   6.37957279287873E-07   1.71166847694332E-13   0.00000000000000E+00   0.00000000000000E+00
      0.00000000000000E+00  -3.78512870597843E-11  -1.96738614581862E-16   2.16232873256634E-07   2.16195021772835E-07
     -4.71941383357642E-14  -1.70000000000000E+01  -1.70000000000000E+01   0.00000000000000E+00  -4.60592828328911E-07
     -5.01828513740796E-15  -3.93559467713513E-07  -8.54152301060709E-07  -1.23972709358568E-13
      1.93619506835937E-10
      8.00000000000000E-01   8.00000000000000E-01   0.00000000000000E+00   6.54089304489109E-13   6.44647250833712E-07
     -2.30898140068814E-09   6.42338923522329E-07   1.71193117960113E-13   0.00000000000000E+00   0.00000000000000E+00
      0.00000000000000E+00  -2.55290089755294E-11  -1.96738641573284E-16   1.77769608970276E-07   1.77744079764562E-07
     -4.71921149908680E-14  -1.70000000000000E+01  -1.70000000000000E+01   0.00000000000000E+00  -4.12292697300623E-07
     -5.01911394399461E-15  -4.07790300967153E-07  -8.20083003286890E-07  -1.24001002969246E-13
      2.42274383544922E-10
      8.00000000000000E-01   8.00000000000000E-01   0.00000000000000E+00  -2.79520785293704E-12   6.39917920186913E-07
     -1.60768103037823E-09   6.38307443948682E-07   1.71212271536554E-13   0.00000000000000E+00   0.00000000000000E+00
      0.00000000000000E+00  -2.21913352882023E-11  -1.96738639257765E-16   1.55764906591390E-07   1.55742715059363E-07
     -4.71919947902911E-14  -1.70000000000000E+01  -1.70000000000000E+01   0.00000000000000E+00  -3.80205622480980E-07
     -5.01967524649806E-15  -4.13844531507390E-07  -7.94050159008045E-07  -1.24020276746264E-13
      3.15256698608398E-10
      8.00000000000000E-01   8.00000000000000E-01   0.00000000000000E+00  -5.15082550852434E-12   6.29295267006354E-07
     -9.36060593618487E-10   6.28354055587227E-07   1.71239994766217E-13   0.00000000000000E+00   0.00000000000000E+00
      0.00000000000000E+00  -2.01929142195025E-11  -1.96738650259551E-16   1.26432543096259E-07   1.26412349985301E-07
     -4.71935871831501E-14  -1.70000000000000E+01  -1.70000000000000E+01   0.00000000000000E+00  -3.36208615379746E-07
     -5.02043597897665E-15  -4.18557785172344E-07  -7.54766405572526E-07  -1.24046407583067E-13
      3.69993434906006E-10
      8.00000000000000E-01   8.00000000000000E-01   0.00000000000000E+00  -6.02901146543217E-12   6.20103729397378E-07
     -6.29565655972317E-10   6.19468134729940E-07   1.71260025876088E-13   0.00000000000000E+00   0.00000000000000E+00
      0.00000000000000E+00  -1.94660994112033E-11  -1.96738700805218E-16   1.05792707858774E-07   1.05773241562624E-07
     -4.71960627662321E-14  -1.70000000000000E+01  -1.70000000000000E+01   0.00000000000000E+00  -3.05359128923480E-07
     -5.02094713881369E-15  -4.19882242348137E-07  -7.25241376292563E-07  -1.24063963109856E-13
      4.11045987129211E-10
      8.00000000000000E-01   8.00000000000000E-01   0.00000000000000E+00  -6.60983955167093E-12   6.12780070826486E-07
     -4.70229686627082E-10   6.12303231300308E-07   1.71274642237775E-13   0.00000000000000E+00   0.00000000000000E+00
      0.00000000000000E+00  -1.88719468168266E-11  -1.96738777300270E-16   9.08338098029806E-08   9.08149376594250E-08
     -4.71986030757953E-14  -1.70000000000000E+01  -1.70000000000000E+01   0.00000000000000E+00  -2.83009342712813E-07
     -5.02129879898186E-15  -4.20108821225622E-07  -7.03118168959733E-07  -1.24076039161979E-13
      4.72624815464020E-10
      8.00000000000000E-01   8.00000000000000E-01   0.00000000000000E+00  -7.70806187305281E-12   6.00829580856686E-07
     -3.05752039260633E-10   6.00516120755553E-07   1.71295918972378E-13   0.00000000000000E+00   0.00000000000000E+00
      0.00000000000000E+00  -1.75039747380824E-11  -1.96738968945090E-16   6.95395876858304E-08   6.95220835143534E-08
     -4.72034596004416E-14  -1.70000000000000E+01  -1.70000000000000E+01   0.00000000000000E+00  -2.50375947246660E-07
     -5.02177700312986E-15  -4.19662252001469E-07  -6.70038204269906E-07  -1.24092459371936E-13
      5.18808936715126E-10
      8.00000000000000E-01   8.00000000000000E-01   0.00000000000000E+00  -8.86151642661727E-12   5.90716066138403E-07
     -2.23700791554019E-10   5.90483503830422E-07   1.71311345329420E-13   0.00000000000000E+00   0.00000000000000E+00
      0.00000000000000E+00  -1.59302635600523E-11  -1.96739177956414E-16   5.48883013171564E-08   5.48723708568572E-08
     -4.72078758173178E-14  -1.70000000000000E+01  -1.70000000000000E+01   0.00000000000000E+00  -2.26452068135771E-07
     -5.02209767124853E-15  -4.18903801529410E-07  -6.45355874687279E-07  -1.24103469512103E-13
      5.88085118591785E-10
      8.00000000000000E-01   8.00000000000000E-01   0.00000000000000E+00  -1.12921095467978E-11   5.72605454074750E-07
     -1.42135281240538E-10   5.72452026683963E-07   1.71333518782078E-13   0.00000000000000E+00   0.00000000000000E+00
      0.00000000000000E+00  -1.24912312151204E-11  -1.96739593764441E-16   3.62010048705932E-08   3.61885134426385E-08
     -4.72155823204897E-14  -1.70000000000000E+01  -1.70000000000000E+01   0.00000000000000E+00  -1.91277199032887E-07
     -5.02251903668892E-15  -4.17363336071195E-07  -6.08640540126601E-07  -1.24117936461590E-13
      6.91999391406774E-10
      8.00000000000000E-01   8.00000000000000E-01   0.00000000000000E+00  -1.63466148514562E-11   5.35899825412521E-07
     -7.51627852752964E-11   5.35808316012394E-07   1.71364050213190E-13   0.00000000000000E+00   0.00000000000000E+00
      0.00000000000000E+00  -5.08579796153674E-12  -1.96740372487701E-16   1.88512496608291E-08   1.88461636661272E-08
     -4.72289060212020E-14  -1.70000000000000E+01  -1.70000000000000E+01   0.00000000000000E+00  -1.40088108355812E-07
     -5.02302026299086E-15  -4.14566366299690E-07  -5.54654479678522E-07  -1.24135144191989E-13
      7.69935096018016E-10
      8.00000000000000E-01   8.00000000000000E-01   0.00000000000000E+00  -2.06765378477545E-11   4.99189698402715E-07
     -4.93030985790101E-11   4.99119718766288E-07   1.71384186114778E-13   0.00000000000000E+00   0.00000000000000E+00
      0.00000000000000E+00   1.54518938314074E-12  -1.96740923872692E-16   1.63678065537415E-08   1.63693515463837E-08
     -4.72395670343011E-14  -1.70000000000000E+01  -1.70000000000000E+01   0.00000000000000E+00  -1.03190964099971E-07
     -5.02329628065176E-15  -4.12298101189405E-07  -5.15489070312672E-07  -1.24144619080477E-13
      8.86838652934879E-10
      8.00000000000000E-01   8.00000000000000E-01   0.00000000000000E+00  -2.61585646648712E-11   4.29684884954587E-07
     -2.85000985394914E-11   4.29630226291383E-07   1.71408502225414E-13   0.00000000000000E+00   0.00000000000000E+00
      0.00000000000000E+00   1.09037275894227E-11  -1.96740845026662E-16   3.06194307006797E-08   3.06303342315283E-08
     -4.72548727917568E-14  -1.70000000000000E+01  -1.70000000000000E+01   0.00000000000000E+00  -5.14003691584327E-08
     -5.02355884385997E-15  -4.08860186340920E-07  -4.60260560522912E-07  -1.24153629433657E-13
      9.74516320622526E-10
      8.00000000000000E-01   8.00000000000000E-01   0.00000000000000E+00  -2.83322647308689E-11   3.69405274489616E-07
     -2.04589974751190E-11   3.69356483227410E-07   1.71421295294059E-13   0.00000000000000E+00   0.00000000000000E+00
      0.00000000000000E+00   1.59606579343812E-11  -1.96738838732275E-16   5.32946931457453E-08   5.33106536069408E-08
     -4.72647106603488E-14  -1.70000000000000E+01  -1.70000000000000E+01   0.00000000000000E+00  -1.63393445943313E-08
     -5.02364505932417E-15  -4.06327787216375E-07  -4.22667136834352E-07  -1.24156584633710E-13
      1.10603282215400E-09
      8.00000000000000E-01   8.00000000000000E-01   0.00000000000000E+00  -2.75254639282686E-11   2.76800496739405E-07
     -1.37243295803167E-11   2.76759246945897E-07   1.71430945413078E-13   0.00000000000000E+00   0.00000000000000E+00
      0.00000000000000E+00   1.88173332512478E-11  -1.96727677633824E-16   9.74732902153547E-08   9.74921073518783E-08
     -4.72752114844449E-14  -1.70000000000000E+01  -1.70000000000000E+01   0.00000000000000E+00   2.84095928432935E-08
     -5.02362057230222E-15  -4.02660942117448E-07  -3.74251354297776E-07  -1.24155733928634E-13
      1.20467019830260E-09
      8.00000000000000E-01   8.00000000000000E-01   0.00000000000000E+00  -2.42375055646524E-11   2.12987068656991E-07
     -1.08819585239047E-11   2.12951949192903E-07   1.71430932972107E-13   0.00000000000000E+00   0.00000000000000E+00
      0.00000000000000E+00   1.75453617537178E-11  -1.96707640576672E-16   1.31764498041292E-07   1.31782043206338E-07
     -4.72793499827890E-14  -1.70000000000000E+01  -1.70000000000000E+01   0.00000000000000E+00   5.52588383259573E-08
     -5.02349994754629E-15  -3.99992825701699E-07  -3.44733992399241E-07  -1.24151582989320E-13
      1.35262626252550E-09
      8.00000000000000E-01   8.00000000000000E-01   0.00000000000000E+00  -1.74242830136183E-11   1.36318407724500E-07
     -8.20053511155835E-12   1.36292782906374E-07   1.71421215670073E-13   0.00000000000000E+00   0.00000000000000E+00
      0.00000000000000E+00   1.25887373857465E-11  -1.96645492307386E-16   1.74337768321344E-07   1.74350356862084E-07
     -4.72801026078138E-14  -1.70000000000000E+01  -1.70000000000000E+01   0.00000000000000E+00   8.52971763298282E-08
     -5.02319549373291E-15  -3.95940311075091E-07  -3.10643139768459E-07  -1.24141113062259E-13
      1.46359331069268E-09
      8.00000000000000E-01   8.00000000000000E-01   0.00000000000000E+00  -1.23876283185479E-11   9.54498590288671E-08
     -6.87931534339428E-12   9.54305920852052E-08   1.71408090011687E-13   0.00000000000000E+00   0.00000000000000E+00
      0.00000000000000E+00   8.24505675652838E-12  -1.96566288272954E-16   1.96236601852247E-07   1.96244846712438E-07
     -4.72773352560342E-14  -1.70000000000000E+01  -1.70000000000000E+01   0.00000000000000E+00   1.00964323591041E-07
     -5.02289422271694E-15  -3.92639757365790E-07  -2.91675438797643E-07  -1.24130754755653E-13
      1.63004388294345E-09
      8.00000000000000E-01   8.00000000000000E-01   0.00000000000000E+00  -6.70445915529210E-12   5.66027914693307E-08
     -5.45034417262904E-12   5.65906366660028E-08   1.71382733725915E-13   0.00000000000000E+00   0.00000000000000E+00
      0.00000000000000E+00   3.00352944372314E-12  -1.96392297755248E-16   2.13685054732694E-07   2.13688058065745E-07
     -4.72701229513224E-14  -1.70000000000000E+01  -1.70000000000000E+01   0.00000000000000E+00   1.16341689962650E-07
     -5.02236647766535E-15  -3.86620379672031E-07  -2.70278694731748E-07  -1.24112610774593E-13
      1.75488181213153E-09
      8.00000000000000E-01   8.00000000000000E-01   0.00000000000000E+00  -4.05490269920019E-12   4.01365429103549E-08
     -4.64947362603107E-12   4.01278385340296E-08   1.71361224251608E-13   0.00000000000000E+00   0.00000000000000E+00
      0.00000000000000E+00   4.76669044546969E-13  -1.96227628271500E-16   2.17658150906091E-07   2.17658627378908E-07
     -4.72635712192924E-14  -1.70000000000000E+01  -1.70000000000000E+01   0.00000000000000E+00   1.22993712690329E-07
     -5.02193141013434E-15  -3.80780173581336E-07  -2.57786465912938E-07  -1.24097653032316E-13
      1.94213870591364E-09
      8.00000000000000E-01   8.00000000000000E-01   0.00000000000000E+00  -1.93827546039689E-12   2.64904630843289E-08
     -3.70677727597168E-12   2.64848180315926E-08   1.71327867432454E-13   0.00000000000000E+00   0.00000000000000E+00
      0.00000000000000E+00  -1.49045456750804E-12  -1.95960806133580E-16   2.15553609645571E-07   2.15552118995042E-07
     -4.72536723330167E-14  -1.70000000000000E+01  -1.70000000000000E+01   0.00000000000000E+00   1.26985441303573E-07
     -5.02124912547168E-15  -3.69022373308959E-07  -2.42036937026636E-07  -1.24074195099437E-13
      2.08258137625022E-09
      8.00000000000000E-01   8.00000000000000E-01   0.00000000000000E+00  -1.22712556657824E-12   2.09513046952456E-08
     -3.14501689280602E-12   2.09469325527862E-08   1.71303220275542E-13   0.00000000000000E+00   0.00000000000000E+00
      0.00000000000000E+00  -2.04102230158519E-12  -1.95768848322042E-16   2.10761782520376E-07   2.10759741302305E-07
     -4.72467990222104E-14  -1.70000000000000E+01  -1.70000000000000E+01   0.00000000000000E+00   1.25844088691393E-07
     -5.02073217942045E-15  -3.57550757525753E-07  -2.31706673855092E-07  -1.24056421253331E-13
      2.29324538175510E-09
      8.00000000000000E-01   8.00000000000000E-01   0.00000000000000E+00  -7.46155483910745E-13   1.57235278605076E-08
     -2.46526327390995E-12   1.57203164417498E-08   1.71268538657018E-13   0.00000000000000E+00   0.00000000000000E+00
      0.00000000000000E+00  -2.17918671616920E-12  -1.95525263312886E-16   2.02200957775503E-07   2.02198778393262E-07
     -4.72379019300117E-14  -1.70000000000000E+01  -1.70000000000000E+01   0.00000000000000E+00   1.18416138616326E-07
     -5.01998224853631E-15  -3.36335228431356E-07  -2.17919094835012E-07  -1.24030636727007E-13
      2.45124338588376E-09
      8.00000000000000E-01   8.00000000000000E-01   0.00000000000000E+00  -5.83464475240992E-13   1.30084707781772E-08
     -2.05620315604064E-12   1.30058311105459E-08   1.71245033823059E-13   0.00000000000000E+00   0.00000000000000E+00
      0.00000000000000E+00  -2.02495270039511E-12  -1.95382936432786E-16   1.95858043988747E-07   1.95856018840664E-07
     -4.72323927156672E-14  -1.70000000000000E+01  -1.70000000000000E+01   0.00000000000000E+00   1.09161140208650E-07
     -5.01945884178434E-15  -3.18022985140401E-07  -2.08861849951210E-07  -1.24012641107393E-13
      2.56974188898025E-09
      8.00000000000000E-01   8.00000000000000E-01   0.00000000000000E+00  -5.03292929867431E-13   1.13290160922204E-08
     -1.79471805053890E-12   1.13267180812400E-08   1.71229079091093E-13   0.00000000000000E+00   0.00000000000000E+00
      0.00000000000000E+00  -1.85354641522029E-12  -1.95297224238415E-16   1.91476110014944E-07   1.91474256273231E-07
     -4.72288802450256E-14  -1.70000000000000E+01  -1.70000000000000E+01   0.00000000000000E+00   1.00756735251270E-07
     -5.01909694401493E-15  -3.03557704586645E-07  -2.02800974354471E-07  -1.24000198846068E-13
      2.74748964362499E-09
      8.00000000000000E-01   8.00000000000000E-01   0.00000000000000E+00  -4.09880434095146E-13   9.20930223685544E-09
     -1.46263258610188E-12   9.20742972383524E-09   1.71208009750027E-13   0.00000000000000E+00   0.00000000000000E+00
      0.00000000000000E+00  -1.56656221668008E-12  -1.95196058468789E-16   1.85681634129882E-07   1.85680067372470E-07
     -4.72244947364970E-14  -1.70000000000000E+01  -1.70000000000000E+01   0.00000000000000E+00   8.68944192920890E-08
     -5.01861165450762E-15  -2.81781911369783E-07  -1.94887497096305E-07  -1.23983515013530E-13
      2.88080045960855E-09
      8.00000000000000E-01   8.00000000000000E-01   0.00000000000000E+00  -3.52972429063641E-13   7.87715636741797E-09
     -1.25415246082454E-12   7.87554924252808E-09   1.71194461790624E-13   0.00000000000000E+00   0.00000000000000E+00
      0.00000000000000E+00  -1.34992422321485E-12  -1.95137708638618E-16   1.81976768375850E-07   1.81975418256489E-07
     -4.72218172621467E-14  -1.70000000000000E+01  -1.70000000000000E+01   0.00000000000000E+00   7.62021040210601E-08
     -5.01829544793475E-15  -2.66053066501782E-07  -1.89850967499017E-07  -1.23972644528477E-13
      3.08076668358388E-09
      8.00000000000000E-01   8.00000000000000E-01   0.00000000000000E+00  -2.81120631244592E-13   6.21657396261388E-09
     -9.94745460758179E-13   6.21529809652188E-09   1.71177556849495E-13   0.00000000000000E+00   0.00000000000000E+00
      0.00000000000000E+00  -1.05231626394508E-12  -1.95071551333140E-16   1.77403816966830E-07   1.77402764455494E-07
     -4.72186071223560E-14  -1.70000000000000E+01  -1.70000000000000E+01   0.00000000000000E+00   6.08921084643382E-08
     -5.01789707273094E-15  -2.44510165998457E-07  -1.83618062552016E-07  -1.23958949727140E-13
      3.38071601954688E-09
      8.00000000000000E-01   8.00000000000000E-01   0.00000000000000E+00  -1.97438998179563E-13   4.34095015038211E-09
     -7.00774023682056E-13   4.34005193736025E-09   1.71158855186588E-13   0.00000000000000E+00   0.00000000000000E+00
      0.00000000000000E+00  -6.92204466862819E-13  -1.95008258242208E-16   1.72442535075052E-07   1.72441842675577E-07
     -4.72151866199728E-14  -1.70000000000000E+01  -1.70000000000000E+01   0.00000000000000E+00   4.14314227520434E-08
     -5.01745254072709E-15  -2.18213312347528E-07  -1.76781894612937E-07  -1.23943668566615E-13
      3.83064002349138E-09
      8.00000000000000E-01   8.00000000000000E-01   0.00000000000000E+00  -1.13897931582405E-13   2.52345677130837E-09
     -4.11493610568308E-13   2.52293137976622E-09   1.71141788868358E-13   0.00000000000000E+00   0.00000000000000E+00
      0.00000000000000E+00  -3.48785935234586E-13  -1.94968081185357E-16   1.68056174504867E-07   1.68055825523963E-07
     -4.72121085151586E-14  -1.70000000000000E+01  -1.70000000000000E+01   0.00000000000000E+00   2.16732132163910E-08
     -5.01704562420186E-15  -1.92251965103075E-07  -1.70578756903730E-07  -1.23929680353200E-13
      4.50552602940813E-09
      8.00000000000000E-01   8.00000000000000E-01   0.00000000000000E+00  -4.91982261094877E-14   1.11740457246834E-09
     -1.81663499103883E-13   1.11717371074312E-09   1.71129995103896E-13   0.00000000000000E+00   0.00000000000000E+00
      0.00000000000000E+00  -1.21875486863834E-13  -1.94979781119177E-16   1.65159207749190E-07   1.65159085678724E-07
     -4.72098820175676E-14  -1.70000000000000E+01  -1.70000000000000E+01   0.00000000000000E+00   7.81343422141182E-09
     -5.01676730510213E-15  -1.74089688594111E-07  -1.66276259389467E-07  -1.23920113086327E-13
      5.51785503828325E-09
      8.00000000000000E-01   8.00000000000000E-01   0.00000000000000E+00  -1.39632581217600E-14   3.22486118119220E-10
     -5.00646678374738E-14   3.22422090193261E-10   1.71124122909329E-13   0.00000000000000E+00   0.00000000000000E+00
      0.00000000000000E+00  -3.22315447745829E-14  -1.95072174207372E-16   1.63772902327647E-07   1.63772869901030E-07
     -4.72086318124713E-14  -1.70000000000000E+01  -1.70000000000000E+01   0.00000000000000E+00   1.98215893876994E-09
     -5.01663278226511E-15  -1.66077445913361E-07  -1.64095291991224E-07  -1.23915491096858E-13
      7.03634855159594E-09
      8.00000000000000E-01   8.00000000000000E-01   0.00000000000000E+00  -1.78764576461875E-15   3.89200286345288E-11
     -5.37776137454102E-15   3.89128632273896E-11   1.71121995378117E-13   0.00000000000000E+00   0.00000000000000E+00
      0.00000000000000E+00  -6.11440800954387E-15  -1.95261012809353E-16   1.63255236592516E-07   1.63255230282847E-07
     -4.72081448857743E-14  -1.70000000000000E+01  -1.70000000000000E+01   0.00000000000000E+00   3.55838419022864E-10
     -5.01658497706886E-15  -1.63649976548512E-07  -1.63294143146074E-07  -1.23913850492344E-13
      8.17521868658045E-09
      8.00000000000000E-01   8.00000000000000E-01   0.00000000000000E+00  -3.86271891780936E-16   8.48979862197783E-12
     -1.19098641975875E-15   8.48822136366629E-12   1.71121707096528E-13   0.00000000000000E+00   0.00000000000000E+00
      0.00000000000000E+00  -1.15836776895363E-15  -1.95404000538783E-16   1.63179556318199E-07   1.63179554964427E-07
     -4.72080884241762E-14  -1.70000000000000E+01  -1.70000000000000E+01   0.00000000000000E+00   7.68669670061976E-11
     -5.01657822378232E-15  -1.63264905136219E-07  -1.63188043185791E-07  -1.23913618672351E-13
      9.88352388905722E-09
      8.00000000000000E-01   8.00000000000000E-01   0.00000000000000E+00  -1.66709393813579E-17   7.06922189831821E-13
     -5.43088028019743E-17   7.06851210089638E-13   1.71121641196191E-13   0.00000000000000E+00   0.00000000000000E+00
      0.00000000000000E+00  -1.55564888269923E-17  -1.95595542058363E-16   1.63163178480938E-07   1.63163178269786E-07
     -4.72080762081440E-14  -1.70000000000000E+01  -1.70000000000000E+01   0.00000000000000E+00   1.83155289125143E-14
     -5.01657666182558E-15  -1.63163898419948E-07  -1.63163885120996E-07  -1.23913564988047E-13
      1.11647527909148E-08
      8.00000000000000E-01   8.00000000000000E-01   0.00000000000000E+00  -3.31385443668223E-18   3.26823536835775E-13
      7.58125388671577E-18   3.26827804235225E-13   1.71121639819474E-13   0.00000000000000E+00   0.00000000000000E+00
      0.00000000000000E+00   1.20551317798655E-16  -1.95718546794462E-16   1.63162890859244E-07   1.63162890784077E-07
     -4.72080757715128E-14  -1.70000000000000E+01  -1.70000000000000E+01   0.00000000000000E+00   1.08308806534830E-12
     -5.01657663408515E-15  -1.63164295683370E-07  -1.63163217611881E-07  -1.23913564047960E-13
      1.30865961437012E-08
      8.00000000000000E-01   8.00000000000000E-01   0.00000000000000E+00  -5.99191163449187E-18   1.94685490919410E-13
      2.05181528960842E-17   1.94700017160672E-13   1.71121638892147E-13   0.00000000000000E+00   0.00000000000000E+00
      0.00000000000000E+00  -2.87650431673678E-17  -1.95872713802730E-16   1.63162602333187E-07   1.63162602108549E-07
     -4.72080757609760E-14  -1.70000000000000E+01  -1.70000000000000E+01   0.00000000000000E+00   2.12210812921763E-15
     -5.01657660738298E-15  -1.63162793914098E-07  -1.63162796808567E-07  -1.23913563131171E-13
      1.59693611728807E-08
      8.00000000000000E-01   8.00000000000000E-01   0.00000000000000E+00  -2.55760791699989E-18   1.64048368689571E-13
      2.07225349715122E-17   1.64066533616626E-13   1.71121639154218E-13   0.00000000000000E+00   0.00000000000000E+00
      0.00000000000000E+00   3.07792765250401E-18  -1.96050170949427E-16   1.63162637459615E-07   1.63162637266643E-07
     -4.72080759943706E-14  -1.70000000000000E+01  -1.70000000000000E+01   0.00000000000000E+00  -4.62839047320018E-16
     -5.01657660822715E-15  -1.63162795853761E-07  -1.63162801333176E-07  -1.23913563159848E-13
      2.02935087166500E-08
      8.00000000000000E-01   8.00000000000000E-01   0.00000000000000E+00  -5.41503732182112E-17   1.35877731938981E-13
      2.07000067790349E-17   1.35844281572542E-13   1.71121639364039E-13   0.00000000000000E+00   0.00000000000000E+00