DF-ISE text

Info {
  version   = 1.0
  type      = xyplot
  datasets  = [
    "time"
    "Ntop OuterVoltage" "Ntop InnerVoltage" "Ntop QuasiFermiPotential" "Ntop DisplacementCurrent" "Ntop eCurrent"
    "Ntop hCurrent" "Ntop TotalCurrent" "Ntop Charge" "Ptop OuterVoltage" "Ptop InnerVoltage"
    "Ptop QuasiFermiPotential" "Ptop DisplacementCurrent" "Ptop eCurrent" "Ptop hCurrent" "Ptop TotalCurrent"
    "Ptop Charge" "Pbot OuterVoltage" "Pbot InnerVoltage" "Pbot QuasiFermiPotential" "Pbot DisplacementCurrent"
    "Pbot eCurrent" "Pbot hCurrent" "Pbot TotalCurrent" "Pbot Charge" ]
  functions = [
    Time
    OuterVoltage InnerVoltage QuasiFermiPotential DisplacementCurrent eCurrent
    hCurrent TotalCurrent Charge OuterVoltage InnerVoltage
    QuasiFermiPotential DisplacementCurrent eCurrent hCurrent TotalCurrent
    Charge OuterVoltage InnerVoltage QuasiFermiPotential DisplacementCurrent
    eCurrent hCurrent TotalCurrent Charge ]
}

Data {
      5.00000000000000E-13
      8.00000000000000E-01   8.00000000000000E-01   0.00000000000000E+00   1.23799990161703E-14   4.26854979872019E-12
     -3.82934063474614E-12   4.51589162990213E-13   2.32745367027447E-13   0.00000000000000E+00   0.00000000000000E+00
      0.00000000000000E+00  -1.08961846081260E-13  -1.97181352815345E-16   1.98583328741882E-11   1.97491738467542E-11
     -7.40436337749093E-14  -4.00000000000000E+01  -4.00000000000000E+01   0.00000000000000E+00  -2.10883315135074E-13
      7.63408009630901E-12  -2.76239597909182E-11  -2.02007630097443E-11  -1.58701733252537E-13
      1.25000000000000E-12
      8.00000000000000E-01   8.00000000000000E-01   0.00000000000000E+00   5.27274821307954E-14   1.87541221688920E-11
     -1.76697895847892E-11   1.13706006623360E-12   2.32745367027618E-13   0.00000000000000E+00   0.00000000000000E+00
      0.00000000000000E+00  -9.01991487982231E-14  -1.97181352814075E-16   2.04898714753061E-11   2.03994751451550E-11
     -7.40436337745816E-14  -4.00000000000000E+01  -4.00000000000000E+01   0.00000000000000E+00  -1.18843839182134E-12
      3.52397027885747E-11  -5.55877996081418E-11  -2.15365352113885E-11  -1.58701733253037E-13
      2.37500000000000E-12
      8.00000000000000E-01   8.00000000000000E-01   0.00000000000000E+00   3.81198919079664E-13   1.55083763197270E-10
     -1.46201676678208E-10   9.26328543814139E-12   2.32745367030110E-13   0.00000000000000E+00   0.00000000000000E+00
      0.00000000000000E+00   6.12445233217522E-13  -1.97181352799701E-16   2.76300529062059E-11   2.82423009580707E-11
     -7.40436337696535E-14  -4.00000000000000E+01  -4.00000000000000E+01   0.00000000000000E+00  -1.29183716290476E-11
      2.91526275979612E-10  -3.16113490746777E-10  -3.75055863962121E-11  -1.58701733260456E-13
      4.06250000000000E-12
      8.00000000000000E-01   8.00000000000000E-01   0.00000000000000E+00   5.71202461701472E-12   2.39951991252037E-09
     -2.21791346496090E-09   1.87318472176481E-10   2.32745367102941E-13   0.00000000000000E+00   0.00000000000000E+00
      0.00000000000000E+00   8.38342919847569E-12  -1.97181352461897E-16   1.95275399948890E-10   2.03658631966014E-10
     -7.40436336204811E-14  -4.00000000000000E+01  -4.00000000000000E+01   0.00000000000000E+00  -2.72581003294934E-10
      4.42025049813579E-09  -4.53864659898335E-09  -3.90977104142496E-10  -1.58701733482461E-13
      6.59375000000000E-12
      8.00000000000000E-01   8.00000000000000E-01   0.00000000000000E+00   1.13182023649515E-10   4.97066112177848E-08
     -4.43857775886594E-08   5.43401565277495E-09   2.32745370179456E-13   0.00000000000000E+00   0.00000000000000E+00
      0.00000000000000E+00   1.69568505158299E-10  -1.97181342118262E-16   5.32192081210692E-09   5.49148912008388E-09
     -7.40436270761254E-14  -4.00000000000000E+01  -4.00000000000000E+01   0.00000000000000E+00  -8.01127660597270E-09
      8.83818378887761E-08  -9.12960660556622E-08  -1.09255047728588E-08  -1.58701743103331E-13
      1.03906250000000E-11
      8.00000000000000E-01   8.00000000000000E-01   0.00000000000000E+00   9.43150741839944E-10   4.41604890370347E-07
     -3.69433205081139E-07   7.31148360310478E-08   2.32745434934846E-13   0.00000000000000E+00   0.00000000000000E+00
      0.00000000000000E+00   1.40853750790264E-09  -1.97181205358940E-16   7.29915502325416E-08   7.44000875432631E-08
     -7.40434859705954E-14  -4.00000000000000E+01  -4.00000000000000E+01   0.00000000000000E+00  -1.08281413936237E-07
      7.34363350954442E-07  -7.73596860592516E-07  -1.47514923574311E-07  -1.58701948964251E-13
      1.60859375000000E-11
      8.00000000000000E-01   8.00000000000000E-01   0.00000000000000E+00   5.48508016283912E-10   3.75985716655680E-07
     -1.97691789526168E-07   1.78842435145796E-07   2.32745772474358E-13   0.00000000000000E+00   0.00000000000000E+00
      0.00000000000000E+00   6.74876430404987E-10  -1.97180995519328E-16   1.76177185852188E-07   1.76852062085412E-07
     -7.40427563851072E-14  -4.00000000000000E+01  -4.00000000000000E+01   0.00000000000000E+00  -2.60010954620056E-07
      3.86959003494289E-07  -4.82642546105442E-07  -3.55694497231209E-07  -1.58703016089252E-13
      2.46289062500000E-11
      8.00000000000000E-01   8.00000000000000E-01   0.00000000000000E+00   7.73385098787011E-11   2.38997766803165E-07
     -4.93773830458075E-09   2.34137367008463E-07   2.32746617544821E-13   0.00000000000000E+00   0.00000000000000E+00
      0.00000000000000E+00  -9.49784150817570E-11  -1.97180930676608E-16   2.06888385290910E-07   2.06793406678648E-07
     -7.40410851382664E-14  -4.00000000000000E+01  -4.00000000000000E+01   0.00000000000000E+00  -3.18353261187343E-07
      7.17025434156611E-10  -1.23294537933923E-07  -4.40930773687109E-07  -1.58705532406555E-13
      3.74433593750000E-11
      8.00000000000000E-01   8.00000000000000E-01   0.00000000000000E+00   5.92674306840648E-11   2.58934400144708E-07
     -4.16199969486024E-09   2.54831667880532E-07   2.32748136476725E-13   0.00000000000000E+00   0.00000000000000E+00
      0.00000000000000E+00  -7.54798441454491E-11  -1.97180967979570E-16   1.86573378800660E-07   1.86497898759334E-07
     -7.40385683417072E-14  -4.00000000000000E+01  -4.00000000000000E+01   0.00000000000000E+00  -3.11459611841398E-07
     -5.94224193878899E-15  -1.29869948856225E-07  -4.41329566639865E-07  -1.58709568135018E-13
      5.66650390625000E-11
      8.00000000000000E-01   8.00000000000000E-01   0.00000000000000E+00   4.25277032006787E-11   2.81098620993776E-07
     -3.60329642618191E-09   2.77537852270794E-07   2.32750675395449E-13   0.00000000000000E+00   0.00000000000000E+00
      0.00000000000000E+00  -5.66725015017945E-11  -1.97181011623825E-16   1.62594898020560E-07   1.62538225321877E-07
     -7.40352211599352E-14  -4.00000000000000E+01  -4.00000000000000E+01   0.00000000000000E+00  -3.01059469333280E-07
     -5.94243715262317E-15  -1.39016602316955E-07  -4.40076077592673E-07  -1.58715454235513E-13
      8.54975585937500E-11
      8.00000000000000E-01   8.00000000000000E-01   0.00000000000000E+00   2.69310221002525E-11   3.03139232903455E-07
     -2.90204360610745E-09   3.00264120319448E-07   2.32754854601875E-13   0.00000000000000E+00   0.00000000000000E+00
      0.00000000000000E+00  -3.87825386569277E-11  -1.97181058111923E-16   1.36712296389171E-07   1.36673513653333E-07
     -7.40309225196539E-14  -4.00000000000000E+01  -4.00000000000000E+01   0.00000000000000E+00  -2.87197643745200E-07
     -5.94264248018979E-15  -1.49739984284937E-07  -4.36937633972780E-07  -1.58723932082222E-13
      1.28746337890625E-10
      8.00000000000000E-01   8.00000000000000E-01   0.00000000000000E+00   1.35598853741783E-11   3.21531470205801E-07
     -2.09685459425723E-09   3.19448175496918E-07   2.32761558277316E-13   0.00000000000000E+00   0.00000000000000E+00
      0.00000000000000E+00  -2.32432447196289E-11  -1.97181102554621E-16   1.11587695521763E-07   1.11564452079862E-07
     -7.40255822870708E-14  -4.00000000000000E+01  -4.00000000000000E+01   0.00000000000000E+00  -2.70100790954653E-07
     -5.94293445297248E-15  -1.60911830679192E-07  -4.31012627576780E-07  -1.58735975990246E-13
      1.61182922363281E-10
      8.00000000000000E-01   8.00000000000000E-01   0.00000000000000E+00   7.74859217525462E-12   3.28358399981068E-07
     -1.64524507313448E-09   3.26720903500109E-07   2.32766735428791E-13   0.00000000000000E+00   0.00000000000000E+00
      0.00000000000000E+00  -1.65373561789677E-11  -1.97181123783133E-16   9.94112697193950E-08   9.93947321660349E-08
     -7.40221703936341E-14  -4.00000000000000E+01  -4.00000000000000E+01   0.00000000000000E+00  -2.59629467733147E-07
     -5.94314282527309E-15  -1.66486161989854E-07  -4.26115635666144E-07  -1.58744565035157E-13
      2.09837799072266E-10
      8.00000000000000E-01   8.00000000000000E-01   0.00000000000000E+00   2.62247419204690E-12   3.32626781256316E-07
     -1.14409555107938E-09   3.31485308179429E-07   2.32774527127608E-13   0.00000000000000E+00   0.00000000000000E+00
      0.00000000000000E+00  -1.07708508958409E-11  -1.97181145428958E-16   8.69250456490593E-08   8.69142746009823E-08
     -7.40176541308548E-14  -4.00000000000000E+01  -4.00000000000000E+01   0.00000000000000E+00  -2.46517456699674E-07
     -5.94344154859221E-15  -1.71882120137295E-07  -4.18399582780410E-07  -1.58756872996753E-13
      2.46328956604004E-10
      8.00000000000000E-01   8.00000000000000E-01   0.00000000000000E+00   5.52347951676002E-13   3.33060525251290E-07
     -8.73392021170985E-10   3.32187685578071E-07   2.32780325078549E-13   0.00000000000000E+00   0.00000000000000E+00
      0.00000000000000E+00  -8.53547563180339E-12  -1.97181157107338E-16   8.02506327335497E-08   8.02420970607367E-08
     -7.40146105886642E-14  -4.00000000000000E+01  -4.00000000000000E+01   0.00000000000000E+00  -2.38148187923935E-07
     -5.94365620309866E-15  -1.74281588771216E-07  -4.12429782638806E-07  -1.58765714489884E-13
      3.01065692901611E-10
      8.00000000000000E-01   8.00000000000000E-01   0.00000000000000E+00  -1.02577032210720E-12   3.31664886302237E-07
     -5.83782543712156E-10   3.31080077988203E-07   2.32788890665497E-13   0.00000000000000E+00   0.00000000000000E+00
      0.00000000000000E+00  -6.92014878066115E-12  -1.97181171599342E-16   7.22492010039327E-08   7.22422806579709E-08
     -7.40104465426001E-14  -4.00000000000000E+01  -4.00000000000000E+01   0.00000000000000E+00  -2.27097043256108E-07
     -5.94396530696162E-15  -1.76225309446101E-07  -4.03322358646174E-07  -1.58778444122896E-13
      3.42118245124817E-10
      8.00000000000000E-01   8.00000000000000E-01   0.00000000000000E+00  -1.49198390079111E-12   3.29875333301872E-07
     -4.33594199939370E-10   3.29440247118032E-07   2.32795205779015E-13   0.00000000000000E+00   0.00000000000000E+00
      0.00000000000000E+00  -6.50935869329103E-12  -1.97181181609849E-16   6.69981515134004E-08   6.69916419575259E-08
     -7.40075929812232E-14  -4.00000000000000E+01  -4.00000000000000E+01   0.00000000000000E+00  -2.19628177338103E-07
     -5.94418796647258E-15  -1.76803705793265E-07  -3.96431889075556E-07  -1.58787612797791E-13
      4.03697073459625E-10
      8.00000000000000E-01   8.00000000000000E-01   0.00000000000000E+00  -1.63681862375861E-12   3.26992373316009E-07
     -2.79071884655994E-10   3.26711664612729E-07   2.32804523102109E-13   0.00000000000000E+00   0.00000000000000E+00
      0.00000000000000E+00  -6.48909831002840E-12  -1.97181196946366E-16   5.93717531580841E-08   5.93652638625928E-08
     -7.40037078055779E-14  -4.00000000000000E+01  -4.00000000000000E+01   0.00000000000000E+00  -2.09237301604609E-07
     -5.94450859971339E-15  -1.76839620926204E-07  -3.86076928475321E-07  -1.58800815296531E-13
      4.49881194710732E-10
      8.00000000000000E-01   8.00000000000000E-01   0.00000000000000E+00  -1.51605342916960E-12   3.24984993651354E-07
     -2.02356077936082E-10   3.24781121519989E-07   2.32811411995019E-13   0.00000000000000E+00   0.00000000000000E+00
      0.00000000000000E+00  -6.71007417286124E-12  -1.97181209205684E-16   5.35494574033839E-08   5.35427471320298E-08
     -7.40011037578797E-14  -4.00000000000000E+01  -4.00000000000000E+01   0.00000000000000E+00  -2.01877377233769E-07
     -5.94473914500030E-15  -1.76446485473510E-07  -3.78323868652019E-07  -1.58810308237139E-13
      5.19157376587391E-10
      8.00000000000000E-01   8.00000000000000E-01   0.00000000000000E+00  -1.20164846951124E-12   3.22506450585179E-07
     -1.26564443612494E-10   3.22378684493097E-07   2.32821639879744E-13   0.00000000000000E+00   0.00000000000000E+00
      0.00000000000000E+00  -7.16181613748071E-12  -1.97181229230993E-16   4.43740525867009E-08   4.43668905733822E-08
     -7.39977153404222E-14  -4.00000000000000E+01  -4.00000000000000E+01   0.00000000000000E+00  -1.91258441172896E-07
     -5.94506982138752E-15  -1.75487127948513E-07  -3.66745575066479E-07  -1.58823924539322E-13
      5.71114512994885E-10
      8.00000000000000E-01   8.00000000000000E-01   0.00000000000000E+00  -9.33014785918693E-13   3.21114494916774E-07
     -9.05817004596397E-11   3.21022980201529E-07   2.32829261816230E-13   0.00000000000000E+00   0.00000000000000E+00
      0.00000000000000E+00  -7.50840060067541E-12  -1.97181245581165E-16   3.70955380554271E-08   3.70880294576452E-08
     -7.39956014236153E-14  -4.00000000000000E+01  -4.00000000000000E+01   0.00000000000000E+00  -1.83518716075989E-07
     -5.94530624956254E-15  -1.74592287637879E-07  -3.58111009659174E-07  -1.58833660392615E-13
      6.49050217606127E-10
      8.00000000000000E-01   8.00000000000000E-01   0.00000000000000E+00  -5.50605923982582E-13   3.19748077856236E-07
     -5.64015930383766E-11   3.19691125657274E-07   2.32840679901663E-13   0.00000000000000E+00   0.00000000000000E+00
      0.00000000000000E+00  -7.98558123878300E-12  -1.97181272132111E-16   2.55612366874175E-08   2.55532509089975E-08
     -7.39931612082375E-14  -4.00000000000000E+01  -4.00000000000000E+01   0.00000000000000E+00  -1.72134185339199E-07
     -5.94564276855929E-15  -1.73110185281429E-07  -3.45244376566271E-07  -1.58847518693425E-13
      7.07501996064559E-10
      8.00000000000000E-01   8.00000000000000E-01   0.00000000000000E+00  -2.97160388717023E-13   3.19232637812608E-07
     -4.08295828300504E-11   3.19191511069390E-07   2.32849267487996E-13   0.00000000000000E+00   0.00000000000000E+00
      0.00000000000000E+00  -8.28758551406922E-12  -1.97181293506784E-16   1.64786513005261E-08   1.64703635178307E-08
     -7.39919332749174E-14  -4.00000000000000E+01  -4.00000000000000E+01   0.00000000000000E+00  -1.63723490993992E-07
     -5.94588110160043E-15  -1.71938377647346E-07  -3.35661874587219E-07  -1.58857334213080E-13
      7.95179663752206E-10
      8.00000000000000E-01   8.00000000000000E-01   0.00000000000000E+00   1.59629909948291E-14   3.19129307116845E-07
     -2.64925759309525E-11   3.19102830503905E-07   2.32862249441783E-13   0.00000000000000E+00   0.00000000000000E+00
      0.00000000000000E+00  -8.65019129025888E-12  -1.97181327607774E-16   2.29939951722249E-09   2.29074912875090E-09
     -7.39911076156312E-14  -4.00000000000000E+01  -4.00000000000000E+01   0.00000000000000E+00  -1.51252604150541E-07
     -5.94621634373260E-15  -1.70140969535899E-07  -3.21393579632656E-07  -1.58871141826152E-13
      9.26696165283676E-10
      8.00000000000000E-01   8.00000000000000E-01   0.00000000000000E+00   3.30642761082419E-13   3.20079076535586E-07
     -1.57554823700064E-11   3.20063651695977E-07   2.32882067574173E-13   0.00000000000000E+00   0.00000000000000E+00
      0.00000000000000E+00  -8.97808969693012E-12  -1.97181382560807E-16  -1.98370549504980E-08  -1.98460332373763E-08
     -7.39922484928145E-14  -4.00000000000000E+01  -4.00000000000000E+01   0.00000000000000E+00  -1.32799469931648E-07
     -5.94666977268211E-15  -1.67418142580282E-07  -3.00217618458600E-07  -1.58889819081357E-13
      1.02533354143228E-09
      8.00000000000000E-01   8.00000000000000E-01   0.00000000000000E+00   4.39207796456247E-13   3.21326546829554E-07
     -1.18930014106546E-11   3.21315093035940E-07   2.32897270811189E-13   0.00000000000000E+00   0.00000000000000E+00
      0.00000000000000E+00  -9.04984978751422E-12  -1.97181426174690E-16  -3.68004513566655E-08  -3.68095014036345E-08
     -7.39950275922035E-14  -4.00000000000000E+01  -4.00000000000000E+01   0.00000000000000E+00  -1.19127185922477E-07
     -5.94697136512974E-15  -1.65378399762856E-07  -2.84505591632305E-07  -1.58902243218985E-13
      1.17328960565518E-09
      8.00000000000000E-01   8.00000000000000E-01   0.00000000000000E+00   3.44757728861134E-13   3.23255147915415E-07
     -8.76460577547698E-12   3.23246728067368E-07   2.32920676323111E-13   0.00000000000000E+00   0.00000000000000E+00
      0.00000000000000E+00  -8.81757854683710E-12  -1.97181494376760E-16  -6.20417850356594E-08  -6.20506028113878E-08
     -7.40023088561361E-14  -4.00000000000000E+01  -4.00000000000000E+01   0.00000000000000E+00  -9.88564571501808E-08
     -5.94736274298176E-15  -1.62339662158437E-07  -2.61196125255980E-07  -1.58918367466976E-13
      1.28425665382236E-09
      8.00000000000000E-01   8.00000000000000E-01   0.00000000000000E+00   5.12806940531633E-15   3.24056739800163E-07
     -7.45138213559715E-12   3.24049293546097E-07   2.32938665225005E-13   0.00000000000000E+00   0.00000000000000E+00
      0.00000000000000E+00  -8.27764169147154E-12  -1.97181547067683E-16  -8.01268987959968E-08  -8.01351766348698E-08
     -7.40101621583526E-14  -4.00000000000000E+01  -4.00000000000000E+01   0.00000000000000E+00  -8.38344799832684E-08
     -5.94760874212562E-15  -1.60079630980349E-07  -2.43914116911227E-07  -1.58928503066653E-13
      1.45070722607313E-09
      8.00000000000000E-01   8.00000000000000E-01   0.00000000000000E+00  -1.12306909692570E-12   3.22173701409267E-07
     -6.16829616800819E-12   3.22166410044002E-07   2.32966032692219E-13   0.00000000000000E+00   0.00000000000000E+00
      0.00000000000000E+00  -6.61094222326130E-12  -1.97181626659718E-16  -1.03824793293034E-07  -1.03831404432439E-07
     -7.40254276440062E-14  -4.00000000000000E+01  -4.00000000000000E+01   0.00000000000000E+00  -6.16130739159224E-08
     -5.94790245065680E-15  -1.56721925747737E-07  -2.18335005611562E-07  -1.58940605048215E-13
      1.57554515526120E-09
      8.00000000000000E-01   8.00000000000000E-01   0.00000000000000E+00  -2.52597025732558E-12   3.16582883527245E-07
     -5.49590642342184E-12   3.16574861650564E-07   2.32986436261037E-13   0.00000000000000E+00   0.00000000000000E+00
      0.00000000000000E+00  -4.54929637288526E-12  -1.97181683851115E-16  -1.17088337524023E-07  -1.17092887017578E-07
     -7.40391625060436E-14  -4.00000000000000E+01  -4.00000000000000E+01   0.00000000000000E+00  -4.52525124063271E-08
     -5.94806429128991E-15  -1.54229456278596E-07  -1.99481974632988E-07  -1.58947273754995E-13
      1.66917360215226E-09
      8.00000000000000E-01   8.00000000000000E-01   0.00000000000000E+00  -3.91215537822282E-12   3.08976065987517E-07
     -5.08153703037297E-12   3.08967072295108E-07   2.33001309640223E-13   0.00000000000000E+00   0.00000000000000E+00
      0.00000000000000E+00  -2.54533723245202E-12  -1.97181722019878E-16  -1.23365102745381E-07  -1.23367648279795E-07
     -7.40503630786089E-14  -4.00000000000000E+01  -4.00000000000000E+01   0.00000000000000E+00  -3.32244270968145E-08
     -5.94815342576311E-15  -1.52374990970345E-07  -1.85599424015313E-07  -1.58950946561614E-13
      1.80961627248885E-09
      8.00000000000000E-01   8.00000000000000E-01   0.00000000000000E+00  -6.26531093895000E-12   2.90790075126896E-07
     -4.55412153352840E-12   2.90779255694423E-07   2.33022150724316E-13   0.00000000000000E+00   0.00000000000000E+00
      0.00000000000000E+00   9.69942592549551E-13  -1.97181761522248E-16  -1.25383119322829E-07  -1.25382149577418E-07
     -7.40677683587694E-14  -4.00000000000000E+01  -4.00000000000000E+01   0.00000000000000E+00  -1.57790252894689E-08
     -5.94823681351049E-15  -1.49618074879300E-07  -1.65397106117006E-07  -1.58954382365545E-13
      1.91494827524129E-09
      8.00000000000000E-01   8.00000000000000E-01   0.00000000000000E+00  -8.03319783589488E-12   2.71505354447030E-07
     -4.21374319949246E-12   2.71493107505995E-07   2.33036035204469E-13   0.00000000000000E+00   0.00000000000000E+00
      0.00000000000000E+00   3.71868492627073E-12  -1.97181767681571E-16  -1.20568285301763E-07  -1.20564566814019E-07
     -7.40806481479540E-14  -4.00000000000000E+01  -4.00000000000000E+01   0.00000000000000E+00  -3.35787771364673E-09
     -5.94826120569892E-15  -1.47570657030068E-07  -1.50928540691976E-07  -1.58955387056515E-13
      2.07294627936994E-09
      8.00000000000000E-01   8.00000000000000E-01   0.00000000000000E+00  -1.01233463305169E-11   2.34566367492948E-07
     -3.76737621841624E-12   2.34552476770399E-07   2.33052835592967E-13   0.00000000000000E+00   0.00000000000000E+00
      0.00000000000000E+00   7.27549506094946E-12  -1.97181714390035E-16  -1.03750779201244E-07  -1.03743503903364E-07
     -7.40982821519794E-14  -4.00000000000000E+01  -4.00000000000000E+01   0.00000000000000E+00   1.37254032737351E-08
     -5.94824099953776E-15  -1.44534370192528E-07  -1.30808972867034E-07  -1.58954553440988E-13
      2.19144478246644E-09
      8.00000000000000E-01   8.00000000000000E-01   0.00000000000000E+00  -1.09392596152462E-11   2.02442958933113E-07
     -3.47328124630821E-12   2.02428546392252E-07   2.33061622403271E-13   0.00000000000000E+00   0.00000000000000E+00
      0.00000000000000E+00   9.05696140051241E-12  -1.97181607931166E-16  -8.51576553011259E-08  -8.51485985369070E-08
     -7.41093713255924E-14  -4.00000000000000E+01  -4.00000000000000E+01   0.00000000000000E+00   2.50065383563637E-08
     -5.94818514982148E-15  -1.42286480263524E-07  -1.17279947855345E-07  -1.58952251077678E-13
      2.36919253711118E-09
      8.00000000000000E-01   8.00000000000000E-01   0.00000000000000E+00  -1.07079273858001E-11   1.52713990222885E-07
     -3.08348876933675E-12   1.52700198806730E-07   2.33067990846006E-13   0.00000000000000E+00   0.00000000000000E+00
      0.00000000000000E+00   9.86717343962569E-12  -1.97181311365292E-16  -5.27528219889912E-08  -5.27429550127328E-08
     -7.41214568696262E-14  -4.00000000000000E+01  -4.00000000000000E+01   0.00000000000000E+00   3.90095717498442E-08
     -5.94804644934555E-15  -1.38966809595794E-07  -9.99572437939962E-08  -1.58946533976381E-13
      2.50250335309473E-09
      8.00000000000000E-01   8.00000000000000E-01   0.00000000000000E+00  -9.54929740261066E-12   1.17919899082966E-07
     -2.82511785657162E-12   1.17907524667707E-07   2.33067504568901E-13   0.00000000000000E+00   0.00000000000000E+00
      0.00000000000000E+00   9.13336419504450E-12  -1.97180971556162E-16  -2.85304929320615E-08  -2.85213597650474E-08
     -7.41267240507191E-14  -4.00000000000000E+01  -4.00000000000000E+01   0.00000000000000E+00   4.71357313979695E-08
     -5.94790685749656E-15  -1.36521890352722E-07  -8.93861649026595E-08  -1.58940780518183E-13
      2.70246957707007E-09
      8.00000000000000E-01   8.00000000000000E-01   0.00000000000000E+00  -7.01046231105209E-12   7.52313183693033E-08
     -2.48179721312064E-12   7.52218261097792E-08   2.33059560775248E-13   0.00000000000000E+00   0.00000000000000E+00
      0.00000000000000E+00   6.76225886189055E-12  -1.97180285998821E-16   1.83704920349594E-09   1.84381126517755E-09
     -7.41291109641942E-14  -4.00000000000000E+01  -4.00000000000000E+01   0.00000000000000E+00   5.58683968384567E-08
     -5.94765619748845E-15  -1.32934028265757E-07  -7.70656373749568E-08  -1.58930449811054E-13
      2.85244424505157E-09
      8.00000000000000E-01   8.00000000000000E-01   0.00000000000000E+00  -5.03506674403398E-12   5.19883456156370E-08
     -2.25391629370546E-12   5.19810566325992E-08   2.33049167785402E-13   0.00000000000000E+00   0.00000000000000E+00
      0.00000000000000E+00   4.68181479392970E-12  -1.97179665847398E-16   1.81207633024835E-08   1.81254449200978E-08
     -7.41274316840274E-14  -4.00000000000000E+01  -4.00000000000000E+01   0.00000000000000E+00   6.02017543741048E-08
     -5.94744476054411E-15  -1.30308249979357E-07  -7.01065015526971E-08  -1.58921736101375E-13
      3.07740624702381E-09
      8.00000000000000E-01   8.00000000000000E-01   0.00000000000000E+00  -2.70521981101053E-12   2.97226652006522E-08
     -1.95122425515122E-12   2.97180087565861E-08   2.33029147584651E-13   0.00000000000000E+00   0.00000000000000E+00
      0.00000000000000E+00   2.08363370302413E-12  -1.97178670140079E-16   3.23786816348474E-08   3.23807650713717E-08
     -7.41214434790531E-14  -4.00000000000000E+01  -4.00000000000000E+01   0.00000000000000E+00   6.43663285401203E-08
     -5.94710425754730E-15  -1.26465096420974E-07  -6.20987738279578E-08  -1.58907704105599E-13
      3.24612774850300E-09
      8.00000000000000E-01   8.00000000000000E-01   0.00000000000000E+00  -1.57461099088188E-12   2.04264436590509E-08
     -1.75090581162092E-12   2.04231181422484E-08   2.33012102970346E-13   0.00000000000000E+00   0.00000000000000E+00
      0.00000000000000E+00   7.80801412676646E-13  -1.97177946702827E-16   3.68677646745221E-08   3.68685452787568E-08
     -7.41154302158457E-14  -4.00000000000000E+01  -4.00000000000000E+01   0.00000000000000E+00   6.63424720229041E-08
     -5.94683655386785E-15  -1.23634129497073E-07  -5.72916634210054E-08  -1.58896672754499E-13
      3.37266887461239E-09
      8.00000000000000E-01   8.00000000000000E-01   0.00000000000000E+00  -1.04588296253632E-12   1.61188809839525E-08
     -1.61384413341425E-12   1.61162212568566E-08   2.32998794217581E-13   0.00000000000000E+00   0.00000000000000E+00
      0.00000000000000E+00   1.44605003032792E-13  -1.97177453604561E-16   3.79364919893137E-08   3.79366363971393E-08
     -7.41105885609101E-14  -4.00000000000000E+01  -4.00000000000000E+01   0.00000000000000E+00   6.74614295650572E-08
     -5.94663107005527E-15  -1.21514281272422E-07  -5.40528576539959E-08  -1.58888205656672E-13
      3.46757471919443E-09
      8.00000000000000E-01   8.00000000000000E-01   0.00000000000000E+00  -7.72465047631094E-13   1.38682068347701E-08
     -1.51785188636611E-12   1.38659165178361E-08   2.32988685850421E-13   0.00000000000000E+00   0.00000000000000E+00
      0.00000000000000E+00  -1.81244122926691E-13  -1.97177121736662E-16   3.78816458322324E-08   3.78814643909323E-08
     -7.41069163365965E-14  -4.00000000000000E+01  -4.00000000000000E+01   0.00000000000000E+00   6.81619695560951E-08
     -5.94647487001504E-15  -1.19909344518389E-07  -5.17473809087684E-08  -1.58881769513824E-13
      3.60993348606750E-09
      8.00000000000000E-01   8.00000000000000E-01   0.00000000000000E+00  -5.05328220206364E-13   1.14981703540717E-08
     -1.38399656782673E-12   1.14962810292837E-08   2.32973487594032E-13   0.00000000000000E+00   0.00000000000000E+00
      0.00000000000000E+00  -5.03398945262519E-13  -1.97176692004941E-16   3.69169354767627E-08   3.69164318806407E-08
     -7.41014845535383E-14  -4.00000000000000E+01  -4.00000000000000E+01   0.00000000000000E+00   6.90288773457780E-08
     -5.94623783874666E-15  -1.17441584309465E-07  -4.84127129099245E-08  -1.58872003040493E-13
      3.82347163637710E-09
      8.00000000000000E-01   8.00000000000000E-01   0.00000000000000E+00  -2.99267996310144E-13   9.26587155132879E-09
     -1.20412977026836E-12   9.26436815356221E-09   2.32950893258932E-13   0.00000000000000E+00   0.00000000000000E+00
      0.00000000000000E+00  -7.45462174395622E-13  -1.97176199145434E-16   3.43252104915324E-08   3.43244648321818E-08
     -7.40937282044461E-14  -4.00000000000000E+01  -4.00000000000000E+01   0.00000000000000E+00   6.98944015093385E-08
     -5.94587770868804E-15  -1.13483228549205E-07  -4.35888329857440E-08  -1.58857165054487E-13
      3.98362524910929E-09
      8.00000000000000E-01   8.00000000000000E-01   0.00000000000000E+00  -2.27821548529192E-13   8.15254704239134E-09
     -1.08425862377089E-12   8.15123496221904E-09   2.32934274844579E-13   0.00000000000000E+00   0.00000000000000E+00
      0.00000000000000E+00  -8.16952306424893E-13  -1.97175937949302E-16   3.19242850305766E-08   3.19234678810943E-08
     -7.40883250213396E-14  -4.00000000000000E+01  -4.00000000000000E+01   0.00000000000000E+00   7.01253618214366E-08
     -5.94560549653279E-15  -1.10200058719144E-07  -4.00747028433134E-08  -1.58845949823239E-13
      4.22385566820759E-09
      8.00000000000000E-01   8.00000000000000E-01   0.00000000000000E+00  -1.74366361655032E-13   6.87767604032653E-09
     -9.25799227291373E-13   6.87657587473759E-09   2.32910142592611E-13   0.00000000000000E+00   0.00000000000000E+00
      0.00000000000000E+00  -8.47165120718715E-13  -1.97175684632465E-16   2.80911812856659E-08   2.80903339233695E-08
     -7.40809846115549E-14  -4.00000000000000E+01  -4.00000000000000E+01   0.00000000000000E+00   6.95668952191316E-08
     -5.94519791947529E-15  -1.04533799072041E-07  -3.49669097981071E-08  -1.58829157981056E-13
      4.40402848253131E-09
      8.00000000000000E-01   8.00000000000000E-01   0.00000000000000E+00  -1.53301361606913E-13   6.09315781475311E-09
     -8.22059972429170E-13   6.09218245341907E-09   2.32892830304112E-13   0.00000000000000E+00   0.00000000000000E+00
      0.00000000000000E+00  -8.32906809782423E-13  -1.97175579223819E-16   2.51984123202543E-08   2.51975792162689E-08
     -7.40760972690950E-14  -4.00000000000000E+01  -4.00000000000000E+01   0.00000000000000E+00   6.82856542001847E-08
     -5.94489633044544E-15  -9.95754099249762E-08  -3.12897616696879E-08  -1.58816733035017E-13
      4.67428770401689E-09
      8.00000000000000E-01   8.00000000000000E-01   0.00000000000000E+00  -1.31369548005693E-13   5.07043175067971E-09
     -6.87419240699292E-13   5.06961296189100E-09   2.32868467906102E-13   0.00000000000000E+00   0.00000000000000E+00