DF-ISE text

Info {
  version   = 1.0
  type      = xyplot
  datasets  = [
    "time"
    "Ntop OuterVoltage" "Ntop InnerVoltage" "Ntop QuasiFermiPotential" "Ntop DisplacementCurrent" "Ntop eCurrent"
    "Ntop hCurrent" "Ntop TotalCurrent" "Ntop Charge" "Ptop OuterVoltage" "Ptop InnerVoltage"
    "Ptop QuasiFermiPotential" "Ptop DisplacementCurrent" "Ptop eCurrent" "Ptop hCurrent" "Ptop TotalCurrent"
    "Ptop Charge" "Pbot OuterVoltage" "Pbot InnerVoltage" "Pbot QuasiFermiPotential" "Pbot DisplacementCurrent"
    "Pbot eCurrent" "Pbot hCurrent" "Pbot TotalCurrent" "Pbot Charge" ]
  functions = [
    Time
    OuterVoltage InnerVoltage QuasiFermiPotential DisplacementCurrent eCurrent
    hCurrent TotalCurrent Charge OuterVoltage InnerVoltage
    QuasiFermiPotential DisplacementCurrent eCurrent hCurrent TotalCurrent
    Charge OuterVoltage InnerVoltage QuasiFermiPotential DisplacementCurrent
    eCurrent hCurrent TotalCurrent Charge ]
}

Data {
      5.00000000000000E-13
      8.00000000000000E-01   8.00000000000000E-01   0.00000000000000E+00   1.96919209121931E-15   4.09577366002667E-12
     -3.82934066840927E-12   2.68402183708619E-13   1.71121639905466E-13   0.00000000000000E+00   0.00000000000000E+00
      0.00000000000000E+00  -1.23349362261476E-13  -1.96738758269496E-16   1.63162855526843E-07   1.63162731980742E-07
     -4.72080767803819E-14  -1.70000000000000E+01  -1.70000000000000E+01   0.00000000000000E+00  -1.87133193681865E-13
      7.63500562456282E-12  -1.63170448255356E-07  -1.63163000382925E-07  -1.23913563125083E-13
      1.25000000000000E-12
      8.00000000000000E-01   8.00000000000000E-01   0.00000000000000E+00   6.48278294374127E-14   1.87089362551956E-11
     -1.76697895987661E-11   1.10397448586697E-12   1.71121639905739E-13   0.00000000000000E+00   0.00000000000000E+00
      0.00000000000000E+00  -1.05384644619964E-13  -1.96738758268741E-16   1.63163230147998E-07   1.63163124566614E-07
     -4.72080767801832E-14  -1.70000000000000E+01  -1.70000000000000E+01   0.00000000000000E+00  -1.12070371005146E-12
      3.52406283168247E-11  -1.63198348465707E-07  -1.63164228541100E-07  -1.23913563125556E-13
      2.37500000000000E-12
      8.00000000000000E-01   8.00000000000000E-01   0.00000000000000E+00   4.73442393277918E-13   1.56656479262647E-10
     -1.46201676370797E-10   1.09282452851283E-11   1.71121639909765E-13   0.00000000000000E+00   0.00000000000000E+00
      0.00000000000000E+00   4.03081981979915E-13  -1.96738758260109E-16   1.63167500681311E-07   1.63167903566554E-07
     -4.72080767771868E-14  -1.70000000000000E+01  -1.70000000000000E+01   0.00000000000000E+00  -1.22383430473550E-11
      2.91527201507829E-10  -1.63458120670300E-07  -1.63178831811839E-07  -1.23913563132578E-13
      4.06250000000000E-12
      8.00000000000000E-01   8.00000000000000E-01   0.00000000000000E+00   7.16869940965907E-12   2.43850099289716E-09
     -2.21791345407728E-09   2.27756238229542E-10   1.71121640029473E-13   0.00000000000000E+00   0.00000000000000E+00
      0.00000000000000E+00   5.11387429498610E-12  -1.96738758053834E-16   1.63269469806280E-07   1.63274583483836E-07
     -4.72080766865013E-14  -1.70000000000000E+01  -1.70000000000000E+01   0.00000000000000E+00  -2.58630149146814E-10
      4.42025142366354E-09  -1.67663960996582E-07  -1.63502339722065E-07  -1.23913563342971E-13
      6.59375000000000E-12
      8.00000000000000E-01   8.00000000000000E-01   0.00000000000000E+00   1.43519044669781E-10   5.09144175074750E-08
     -4.43857770500312E-08   6.67215950211355E-09   1.71121645189738E-13   0.00000000000000E+00   0.00000000000000E+00
      0.00000000000000E+00   1.02886883353680E-10  -1.96738751752620E-16   1.66380447450455E-07   1.66483334137070E-07
     -4.72080727129338E-14  -1.70000000000000E+01  -1.70000000000000E+01   0.00000000000000E+00  -7.61439549482362E-09
      8.83818388142961E-08  -2.53922936958656E-07  -1.73155493639184E-07  -1.23913572476804E-13
      1.03906250000000E-11
      8.00000000000000E-01   8.00000000000000E-01   0.00000000000000E+00   1.20461488496775E-09   4.58773267271381E-07
     -3.69433185894659E-07   9.05446962616906E-08   1.71121755959219E-13   0.00000000000000E+00   0.00000000000000E+00
      0.00000000000000E+00   8.43990112014349E-10  -1.96738669120157E-16   2.07116797226920E-07   2.07960787142195E-07
     -4.72079875796440E-14  -1.70000000000000E+01  -1.70000000000000E+01   0.00000000000000E+00  -1.03143738212431E-07
      7.34363351879931E-07  -9.29725097071385E-07  -2.98505483403886E-07  -1.23913768379575E-13
      1.60859375000000E-11
      8.00000000000000E-01   8.00000000000000E-01   0.00000000000000E+00   7.04526548311869E-10   4.21303798770947E-07
     -1.97691659342813E-07   2.24316665976446E-07   1.71122346440383E-13   0.00000000000000E+00   0.00000000000000E+00
      0.00000000000000E+00   3.59121103642955E-10  -1.96738549415906E-16   2.65832666970070E-07   2.66191787876974E-07
     -4.72075578491927E-14  -1.70000000000000E+01  -1.70000000000000E+01   0.00000000000000E+00  -2.49005268263570E-07
      3.86959004419925E-07  -6.28462190009775E-07  -4.90508453853420E-07  -1.23914788591190E-13
      2.46289062500000E-11
      8.00000000000000E-01   8.00000000000000E-01   0.00000000000000E+00   8.02371025228324E-11   2.97548556494806E-07
     -4.93738976024211E-09   2.92691403837087E-07   1.71123822077475E-13   0.00000000000000E+00   0.00000000000000E+00
      0.00000000000000E+00  -9.62357378562453E-11  -1.96738525722200E-16   2.77000193950553E-07   2.76903958015958E-07
     -4.72066160118155E-14  -1.70000000000000E+01  -1.70000000000000E+01   0.00000000000000E+00  -3.06629542921970E-07
      7.17026359834833E-10  -2.63682845290909E-07  -5.69595361853045E-07  -1.23917206065659E-13
      3.74433593750000E-11
      8.00000000000000E-01   8.00000000000000E-01   0.00000000000000E+00   5.20582231701843E-11   3.16200177877670E-07
     -4.16135824790414E-09   3.12090877852937E-07   1.71126399225893E-13   0.00000000000000E+00   0.00000000000000E+00
      0.00000000000000E+00  -6.75047401638142E-11  -1.96738563741801E-16   2.57611058621178E-07   2.57543553684276E-07
     -4.72052950328764E-14  -1.70000000000000E+01  -1.70000000000000E+01   0.00000000000000E+00  -3.01601606721101E-07
     -5.01664052713380E-15  -2.68032819799469E-07  -5.69634431537211E-07  -1.23921104193016E-13
      5.66650390625000E-11
      8.00000000000000E-01   8.00000000000000E-01   0.00000000000000E+00   3.25011817337799E-11   3.33637313705056E-07
     -3.60229463303581E-09   3.30067520253754E-07   1.71130519992253E-13   0.00000000000000E+00   0.00000000000000E+00
      0.00000000000000E+00  -4.77953818007731E-11  -1.96738604056343E-16   2.36732959790151E-07   2.36685164211611E-07
     -4.72037078459293E-14  -1.70000000000000E+01  -1.70000000000000E+01   0.00000000000000E+00  -2.92252171373664E-07
     -5.01690765310596E-15  -2.74500508074794E-07  -5.66752684465365E-07  -1.23926812146324E-13
      8.54975585937500E-11
      8.00000000000000E-01   8.00000000000000E-01   0.00000000000000E+00   1.73852001272466E-11   3.47960977303901E-07
     -2.90066071203922E-09   3.45077701791989E-07   1.71136979053646E-13   0.00000000000000E+00   0.00000000000000E+00
      0.00000000000000E+00  -3.22240743221446E-11  -1.96738643779695E-16   2.15096229107046E-07   2.15064004835986E-07
     -4.72019491531014E-14  -1.70000000000000E+01  -1.70000000000000E+01   0.00000000000000E+00  -2.77804347424175E-07
     -5.01717862897270E-15  -2.82337354186623E-07  -5.60141706627976E-07  -1.23935029900545E-13
      1.28746337890625E-10
      8.00000000000000E-01   8.00000000000000E-01   0.00000000000000E+00   6.80560633569538E-12   3.56874563088654E-07
     -2.09516645609177E-09   3.54786202238898E-07   1.71146847673644E-13   0.00000000000000E+00   0.00000000000000E+00
      0.00000000000000E+00  -2.10073061384582E-11  -1.96738676507983E-16   1.93519658050059E-07   1.93498650547182E-07
     -4.72002496913802E-14  -1.70000000000000E+01  -1.70000000000000E+01   0.00000000000000E+00  -2.57322564152838E-07
     -5.01753120094922E-15  -2.90962283615710E-07  -5.48284852786079E-07  -1.23946597982263E-13
      1.93619506835937E-10
      8.00000000000000E-01   8.00000000000000E-01   0.00000000000000E+00   3.98032068457335E-13   3.58475142847671E-07
     -1.28536227620875E-09   3.57190178603530E-07   1.71161472889287E-13   0.00000000000000E+00   0.00000000000000E+00
      0.00000000000000E+00  -1.42477140653365E-11  -1.96738691201342E-16   1.72120901014636E-07   1.72106653103832E-07
     -4.71990710956603E-14  -1.70000000000000E+01  -1.70000000000000E+01   0.00000000000000E+00  -2.30242015992221E-07
     -5.01799615108667E-15  -2.99054810697144E-07  -5.29296831707361E-07  -1.23962401793627E-13
      2.42274383544922E-10
      8.00000000000000E-01   8.00000000000000E-01   0.00000000000000E+00  -1.49425972838634E-12   3.55885671802387E-07
     -8.94949511979565E-10   3.54989228030679E-07   1.71172129841704E-13   0.00000000000000E+00   0.00000000000000E+00
      0.00000000000000E+00  -1.24172163460381E-11  -1.96738689573484E-16   1.59822785368128E-07   1.59810367955043E-07
     -4.71989663653332E-14  -1.70000000000000E+01  -1.70000000000000E+01   0.00000000000000E+00  -2.12257831343426E-07
     -5.01830992096311E-15  -3.02541759623987E-07  -5.14799595985723E-07  -1.23973163476371E-13
      3.15256698608398E-10
      8.00000000000000E-01   8.00000000000000E-01   0.00000000000000E+00  -2.80840240499779E-12   3.50054330477995E-07
     -5.21174336627562E-10   3.49530347738962E-07   1.71187550230263E-13   0.00000000000000E+00   0.00000000000000E+00
      0.00000000000000E+00  -1.13102927871488E-11  -1.96738694815688E-16   1.43400285118830E-07   1.43388974629304E-07
     -4.71998016192764E-14  -1.70000000000000E+01  -1.70000000000000E+01   0.00000000000000E+00  -1.87616948548790E-07
     -5.01873480509325E-15  -3.05302368800741E-07  -4.92919322368266E-07  -1.23987748610987E-13
      3.69993434906006E-10
      8.00000000000000E-01   8.00000000000000E-01   0.00000000000000E+00  -3.30727089915181E-12   3.44989713525170E-07
     -3.50644316186164E-10   3.44635761938085E-07   1.71198689769171E-13   0.00000000000000E+00   0.00000000000000E+00
      0.00000000000000E+00  -1.09029400235032E-11  -1.96738721965996E-16   1.31840414074799E-07   1.31829510938036E-07
     -4.72011459166830E-14  -1.70000000000000E+01  -1.70000000000000E+01   0.00000000000000E+00  -1.70351701583985E-07
     -5.01902013754921E-15  -3.06113566273117E-07  -4.76465272876122E-07  -1.23997543852488E-13
      4.11045987129211E-10
      8.00000000000000E-01   8.00000000000000E-01   0.00000000000000E+00  -3.63634980009157E-12   3.40944945255501E-07
     -2.62003655797090E-10   3.40679305249904E-07   1.71206817232409E-13   0.00000000000000E+00   0.00000000000000E+00
      0.00000000000000E+00  -1.05723947157183E-11  -1.96738763653144E-16   1.23461140813938E-07   1.23450568222484E-07
     -4.72025371958272E-14  -1.70000000000000E+01  -1.70000000000000E+01   0.00000000000000E+00  -1.57848510003991E-07
     -5.01921637234594E-15  -3.06281358449181E-07  -4.64129873472388E-07  -1.24004280036583E-13
      4.72624815464020E-10
      8.00000000000000E-01   8.00000000000000E-01   0.00000000000000E+00  -4.25318930739248E-12   3.34334064399142E-07
     -1.70513087753185E-10   3.34159298122081E-07   1.71218647308915E-13   0.00000000000000E+00   0.00000000000000E+00
      0.00000000000000E+00  -9.81506924271667E-12  -1.96738868836577E-16   1.11525855229243E-07   1.11516039963261E-07
     -4.72052104546143E-14  -1.70000000000000E+01  -1.70000000000000E+01   0.00000000000000E+00  -1.39597095062410E-07
     -5.01948313324718E-15  -3.06078238003450E-07  -4.45675338085343E-07  -1.24013436854301E-13
      5.18808936715126E-10
      8.00000000000000E-01   8.00000000000000E-01   0.00000000000000E+00  -4.89846035401462E-12   3.28732064698812E-07
     -1.24877881353287E-10   3.28602288357105E-07   1.71227224091546E-13   0.00000000000000E+00   0.00000000000000E+00
      0.00000000000000E+00  -8.94363334094926E-12  -1.96738984005802E-16   1.03304859822083E-07   1.03295915992003E-07
     -4.72076494607506E-14  -1.70000000000000E+01  -1.70000000000000E+01   0.00000000000000E+00  -1.26218291698606E-07
     -5.01966194576800E-15  -3.05679907630839E-07  -4.31898204349107E-07  -1.24019574630796E-13
      5.88085118591785E-10
      8.00000000000000E-01   8.00000000000000E-01   0.00000000000000E+00  -6.25867670938214E-12   3.18685712476898E-07
     -7.95181961105517E-11   3.18599935604078E-07   1.71239551786197E-13   0.00000000000000E+00   0.00000000000000E+00
      0.00000000000000E+00  -7.03264299282365E-12  -1.96739213708136E-16   9.28007090606424E-08   9.27936762209103E-08
     -4.72119159516191E-14  -1.70000000000000E+01  -1.70000000000000E+01   0.00000000000000E+00  -1.06546714756126E-07
     -5.01989679449479E-15  -3.04846892048966E-07  -4.11393611824989E-07  -1.24027635834578E-13
      6.91999391406774E-10
      8.00000000000000E-01   8.00000000000000E-01   0.00000000000000E+00  -9.09320398766211E-12   2.98275061532639E-07
     -4.22790678544476E-11   2.98223689260797E-07   1.71256524500881E-13   0.00000000000000E+00   0.00000000000000E+00
      0.00000000000000E+00  -2.89323156975614E-12  -1.96739644083671E-16   8.30034564444578E-08   8.30005630161485E-08
     -4.72193096821986E-14  -1.70000000000000E+01  -1.70000000000000E+01   0.00000000000000E+00  -7.79134716670160E-08
     -5.02017585911322E-15  -3.03310775589754E-07  -3.81224252276946E-07  -1.24037214818683E-13
      7.69935096018016E-10
      8.00000000000000E-01   8.00000000000000E-01   0.00000000000000E+00  -1.15230779733653E-11   2.77821845314732E-07
     -2.79002312450726E-11   2.77782422005514E-07   1.71267714624483E-13   0.00000000000000E+00   0.00000000000000E+00
      0.00000000000000E+00   8.20388738283804E-13  -1.96739946352877E-16   8.15455121775099E-08   8.15463323695082E-08
     -4.72252348131965E-14  -1.70000000000000E+01  -1.70000000000000E+01   0.00000000000000E+00  -5.72720562618825E-08
     -5.02032924356607E-15  -3.02056693092811E-07  -3.59328754375023E-07  -1.24042479811286E-13
      8.86838652934879E-10
      8.00000000000000E-01   8.00000000000000E-01   0.00000000000000E+00  -1.45916582903051E-11   2.39061244991370E-07
     -1.63263621580335E-11   2.39030326970922E-07   1.71281215461785E-13   0.00000000000000E+00   0.00000000000000E+00
      0.00000000000000E+00   6.05741470431384E-12  -1.96739875697707E-16   8.94216814944197E-08   8.94277387123841E-08
     -4.72337479192706E-14  -1.70000000000000E+01  -1.70000000000000E+01   0.00000000000000E+00  -2.83070029475478E-08
     -5.02047455379630E-15  -3.00151057715284E-07  -3.28458065683306E-07  -1.24047467542514E-13
      9.74516320622526E-10
      8.00000000000000E-01   8.00000000000000E-01   0.00000000000000E+00  -1.57953043143503E-11   2.05453812104060E-07
     -1.18436420279856E-11   2.05426173157718E-07   1.71288304119812E-13   0.00000000000000E+00   0.00000000000000E+00
      0.00000000000000E+00   8.87387997183361E-12  -1.96738695196635E-16   1.02025411087082E-07   1.02034284770316E-07
     -4.72392217568090E-14  -1.70000000000000E+01  -1.70000000000000E+01   0.00000000000000E+00  -8.71393008778974E-09
     -5.02052160712261E-15  -2.98746522819722E-07  -3.07460457928034E-07  -1.24049082363002E-13
      1.10603282215400E-09
      8.00000000000000E-01   8.00000000000000E-01   0.00000000000000E+00  -1.53143106516757E-11   1.53900448450966E-07
     -8.07178767172145E-12   1.53877062352642E-07   1.71293621440209E-13   0.00000000000000E+00   0.00000000000000E+00
      0.00000000000000E+00   1.04439952249335E-11  -1.96732172418519E-16   1.26568358118525E-07   1.26578801917017E-07
     -4.72450672972826E-14  -1.70000000000000E+01  -1.70000000000000E+01   0.00000000000000E+00   1.62592642523815E-08
     -5.02050624662297E-15  -2.96715123501536E-07  -2.80455864269660E-07  -1.24048554142926E-13
      1.20467019830260E-09
      8.00000000000000E-01   8.00000000000000E-01   0.00000000000000E+00  -1.34594731942208E-11   1.18448167795274E-07
     -6.46502034773236E-12   1.18428243301732E-07   1.71293576048696E-13   0.00000000000000E+00   0.00000000000000E+00
      0.00000000000000E+00   9.71978090022617E-12  -1.96720418558885E-16   1.45583517177482E-07   1.45593236761662E-07
     -4.72473772104756E-14  -1.70000000000000E+01  -1.70000000000000E+01   0.00000000000000E+00   3.12189321122375E-08
     -5.02043766357720E-15  -2.95240407155193E-07  -2.64021480063393E-07  -1.24046198838219E-13
      1.35262626252550E-09
      8.00000000000000E-01   8.00000000000000E-01   0.00000000000000E+00  -9.65278436932164E-12   7.59406293641670E-08
     -4.92931261213538E-12   7.59260472671855E-08   1.71288124519946E-13   0.00000000000000E+00   0.00000000000000E+00
      0.00000000000000E+00   6.95515232818902E-12  -1.96683580207252E-16   1.69138784357371E-07   1.69145739313016E-07
     -4.72478213786506E-14  -1.70000000000000E+01  -1.70000000000000E+01   0.00000000000000E+00   4.79342351059074E-08
     -5.02026597652910E-15  -2.93006016665843E-07  -2.45071786580202E-07  -1.24040303141296E-13
      1.46359331069268E-09
      8.00000000000000E-01   8.00000000000000E-01   0.00000000000000E+00  -6.85549024971425E-12   5.33183117778483E-08
     -4.15956408994797E-12   5.33072967235086E-08   1.71280800431274E-13   0.00000000000000E+00   0.00000000000000E+00
      0.00000000000000E+00   4.54837506000169E-12  -1.96636061822162E-16   1.81229335594183E-07   1.81233883772607E-07
     -4.72463130665201E-14  -1.70000000000000E+01  -1.70000000000000E+01   0.00000000000000E+00   5.66464364179243E-08
     -5.02009661662730E-15  -2.91187611893942E-07  -2.34541180496115E-07  -1.24034487364755E-13
      1.63004388294345E-09
      8.00000000000000E-01   8.00000000000000E-01   0.00000000000000E+00  -3.71130668797253E-12   3.18207579730013E-08
     -3.31401024037249E-12   3.18137326560730E-08   1.71266676263891E-13   0.00000000000000E+00   0.00000000000000E+00
      0.00000000000000E+00   1.65422479602628E-12  -1.96530007232355E-16   1.90848715527412E-07   1.90850369555678E-07
     -4.72423619082332E-14  -1.70000000000000E+01  -1.70000000000000E+01   0.00000000000000E+00   6.51960405673784E-08
     -5.01980038258525E-15  -2.87860137759330E-07  -2.22664102211752E-07  -1.24024314355658E-13
      1.75488181213153E-09
      8.00000000000000E-01   8.00000000000000E-01   0.00000000000000E+00  -2.24840194934595E-12   2.26983341331995E-08
     -2.83344255630746E-12   2.26932522886939E-08   1.71254703579342E-13   0.00000000000000E+00   0.00000000000000E+00
      0.00000000000000E+00   2.61271054981048E-13  -1.96428131529245E-16   1.93033188514899E-07   1.93033449589525E-07
     -4.72387689760141E-14  -1.70000000000000E+01  -1.70000000000000E+01   0.00000000000000E+00   6.88865808815001E-08
     -5.01955638154677E-15  -2.84613277740163E-07  -2.15726701878219E-07  -1.24015934603327E-13
      1.94213870591364E-09
      8.00000000000000E-01   8.00000000000000E-01   0.00000000000000E+00  -1.08083108174777E-12   1.51144426737886E-08
     -2.26281086844777E-12   1.51110990318384E-08   1.71236142894917E-13   0.00000000000000E+00   0.00000000000000E+00
      0.00000000000000E+00  -8.23009037238253E-13  -1.96260884709719E-16   1.91865236027568E-07   1.91864412822269E-07
     -4.72333408492238E-14  -1.70000000000000E+01  -1.70000000000000E+01   0.00000000000000E+00   7.10576093511362E-08
     -5.01917401791211E-15  -2.78033116186070E-07  -2.06975511854108E-07  -1.24002802045693E-13
      2.08258137625022E-09
      8.00000000000000E-01   8.00000000000000E-01   0.00000000000000E+00  -6.88411308853693E-13   1.20179568842848E-08
     -1.92079317042671E-12   1.20153476798055E-08   1.71222434802566E-13   0.00000000000000E+00   0.00000000000000E+00
      0.00000000000000E+00  -1.12536347451722E-12  -1.96139455576450E-16   1.89220736280378E-07   1.89219610720764E-07
     -4.72295735345691E-14  -1.70000000000000E+01  -1.70000000000000E+01   0.00000000000000E+00   7.03455982542458E-08
     -5.01888460774285E-15  -2.71580551635930E-07  -2.01234958400568E-07  -1.23992861267996E-13
      2.29324538175510E-09
      8.00000000000000E-01   8.00000000000000E-01   0.00000000000000E+00  -4.22758535204830E-13   9.07478376464201E-09
     -1.50591820642566E-12   9.07285508790038E-09   1.71203164878564E-13   0.00000000000000E+00   0.00000000000000E+00
      0.00000000000000E+00  -1.19783587842791E-12  -1.95984895284677E-16   1.84507605024934E-07   1.84506406993071E-07
     -4.72247003520917E-14  -1.70000000000000E+01  -1.70000000000000E+01   0.00000000000000E+00   6.60319108224141E-08
     -5.01846550056028E-15  -2.59611167884920E-07  -1.93579262080971E-07  -1.23978464526471E-13
      2.45124338588376E-09
      8.00000000000000E-01   8.00000000000000E-01   0.00000000000000E+00  -3.32851504791676E-13   7.53447858199850E-09
     -1.25597662480465E-12   7.53288975386890E-09   1.71190126924516E-13   0.00000000000000E+00   0.00000000000000E+00
      0.00000000000000E+00  -1.10912917634053E-12  -1.95894795117090E-16   1.81026560836509E-07   1.81025451511438E-07
     -4.72216847547660E-14  -1.70000000000000E+01  -1.70000000000000E+01   0.00000000000000E+00   6.07123371953289E-08
     -5.01817375746598E-15  -2.49270673442462E-07  -1.88558341265307E-07  -1.23968442169751E-13
      2.56974188898025E-09
      8.00000000000000E-01   8.00000000000000E-01   0.00000000000000E+00  -2.87691681031614E-13   6.57762669250740E-09
     -1.09617977303684E-12   6.57624282105333E-09   1.71181292488694E-13   0.00000000000000E+00   0.00000000000000E+00
      0.00000000000000E+00  -1.01238721977893E-12  -1.95840822361015E-16   1.78629104609771E-07   1.78628092026710E-07
     -4.72197624392515E-14  -1.70000000000000E+01  -1.70000000000000E+01   0.00000000000000E+00   5.59049039962832E-08
     -5.01797256074547E-15  -2.41109233826074E-07  -1.85204334847764E-07  -1.23961530049443E-13
      2.74748964362499E-09
      8.00000000000000E-01   8.00000000000000E-01   0.00000000000000E+00  -2.35178069602951E-13   5.36596297890841E-09
     -8.93250660842018E-13   5.36483455017797E-09   1.71169651992129E-13   0.00000000000000E+00   0.00000000000000E+00
      0.00000000000000E+00  -8.51594223368534E-13  -1.95777558952997E-16   1.75470578258346E-07   1.75469726468345E-07
     -4.72173612013423E-14  -1.70000000000000E+01  -1.70000000000000E+01   0.00000000000000E+00   4.80168462625263E-08
     -5.01770363927563E-15  -2.28851402263345E-07  -1.80834561018523E-07  -1.23952290790788E-13
      3.01411127559210E-09
      8.00000000000000E-01   8.00000000000000E-01   0.00000000000000E+00  -1.74754224335417E-13   3.94003743580832E-09
     -6.55811003314514E-13   3.93920687058067E-09   1.71155734773517E-13   0.00000000000000E+00   0.00000000000000E+00
      0.00000000000000E+00  -6.19655492822778E-13  -1.95712352073787E-16   1.71738364292179E-07   1.71737744440974E-07
     -4.72146570142615E-14  -1.70000000000000E+01  -1.70000000000000E+01   0.00000000000000E+00   3.61771178245361E-08
     -5.01737729346103E-15  -2.11854064118714E-07  -1.75676951311555E-07  -1.23941077759256E-13
      3.41404372354277E-09
      8.00000000000000E-01   8.00000000000000E-01   0.00000000000000E+00  -1.08509199985158E-13   2.46014576293306E-09
     -4.10332991739185E-13   2.45962692074133E-09   1.71141667244336E-13   0.00000000000000E+00   0.00000000000000E+00
      0.00000000000000E+00  -3.52957503785759E-13  -1.95658579683270E-16   1.68066549179710E-07   1.68066196026547E-07
     -4.72120487782778E-14  -1.70000000000000E+01  -1.70000000000000E+01   0.00000000000000E+00   2.15675977886848E-08
     -5.01704382310095E-15  -1.92093415718929E-07  -1.70525822947288E-07  -1.23929618466058E-13
      4.01394239546877E-09
      8.00000000000000E-01   8.00000000000000E-01   0.00000000000000E+00  -5.30294191559392E-14   1.20505872319546E-09
     -2.00099720020577E-13   1.20480559405628E-09   1.71130741321215E-13   0.00000000000000E+00   0.00000000000000E+00
      0.00000000000000E+00  -1.39478446877529E-13  -1.95635634537155E-16   1.65338044019212E-07   1.65337904345130E-07
     -4.72100097000514E-14  -1.70000000000000E+01  -1.70000000000000E+01   0.00000000000000E+00   8.90844290526684E-09
     -5.01678525668057E-15  -1.75451147827668E-07  -1.66542709939187E-07  -1.23920731621163E-13
      4.91379040335777E-09
      8.00000000000000E-01   8.00000000000000E-01   0.00000000000000E+00  -1.75496985755290E-14   4.07978449096029E-10
     -6.51673049492637E-14   4.07895732092504E-10   1.71124687982778E-13   0.00000000000000E+00   0.00000000000000E+00
      0.00000000000000E+00  -3.94403571221557E-14  -1.95664591731758E-16   1.63899898023336E-07   1.63899858387314E-07
     -4.72087629259753E-14  -1.70000000000000E+01  -1.70000000000000E+01   0.00000000000000E+00   2.46961480482226E-09
     -5.01664540051116E-15  -1.66777363907584E-07  -1.64307754119407E-07  -1.23915925056803E-13
      6.26356241519126E-09
      8.00000000000000E-01   8.00000000000000E-01   0.00000000000000E+00  -3.12963292891492E-15   7.02504122529468E-11
     -1.01212610701470E-14   7.02371613589477E-11   1.71122244430349E-13   0.00000000000000E+00   0.00000000000000E+00
      0.00000000000000E+00  -9.16037292283789E-15  -1.95758857488600E-16   1.63317485283666E-07   1.63317475927534E-07
     -4.72082024419420E-14  -1.70000000000000E+01  -1.70000000000000E+01   0.00000000000000E+00   5.34048891954955E-10
     -5.01659056009064E-15  -1.63921756964258E-07  -1.63387713088893E-07  -1.23914041988407E-13
      7.27589142406639E-09
      8.00000000000000E-01   8.00000000000000E-01   0.00000000000000E+00  -8.83009543272053E-16   1.93737695731393E-11
     -2.75196171473521E-15   1.93701346018813E-11   1.71121806616105E-13   0.00000000000000E+00   0.00000000000000E+00
      0.00000000000000E+00  -2.89371014475467E-15  -1.95839073826165E-16   1.63205190490596E-07   1.63205187401047E-07
     -4.72081087537050E-14  -1.70000000000000E+01  -1.70000000000000E+01   0.00000000000000E+00   1.71159123081054E-10
     -5.01658053061372E-15  -1.63395711642149E-07  -1.63224557535649E-07  -1.23913697862399E-13
      8.79438493737907E-09
      8.00000000000000E-01   8.00000000000000E-01   0.00000000000000E+00  -9.02820743439409E-17   2.12667939617551E-12
     -2.77112348851221E-16   2.12631200175232E-12   1.71121653028021E-13   0.00000000000000E+00   0.00000000000000E+00
      0.00000000000000E+00  -1.02353486801783E-16  -1.95952703930565E-16   1.63165931436095E-07   1.63165931137789E-07
     -4.72080788151617E-14  -1.70000000000000E+01  -1.70000000000000E+01   0.00000000000000E+00   1.35797668765471E-11
     -5.01657693013793E-15  -1.63181632200090E-07  -1.63168057449791E-07  -1.23913574212859E-13
      9.93325507236359E-09
      8.00000000000000E-01   8.00000000000000E-01   0.00000000000000E+00  -2.34627149639392E-17   6.35763760898466E-13
     -4.61408156321622E-17   6.35694157367870E-13   1.71121642532176E-13   0.00000000000000E+00   0.00000000000000E+00
      0.00000000000000E+00   4.21448373364511E-17  -1.96028694271520E-16   1.63163478363932E-07   1.63163478210048E-07
     -4.72080766836143E-14  -1.70000000000000E+01  -1.70000000000000E+01   0.00000000000000E+00   2.58963004693895E-12
     -5.01657668665935E-15  -1.63166698517676E-07  -1.63164113904206E-07  -1.23913565848561E-13
      1.16415602748404E-08
      8.00000000000000E-01   8.00000000000000E-01   0.00000000000000E+00   3.83772292903414E-18   2.01475047662896E-13
      1.66432104738544E-17   2.01495528596299E-13   1.71121639514539E-13   0.00000000000000E+00   0.00000000000000E+00
      0.00000000000000E+00  -3.07347108621689E-17  -1.96126611237994E-16   1.63162710858245E-07   1.63162710631384E-07
     -4.72080760892670E-14  -1.70000000000000E+01  -1.70000000000000E+01   0.00000000000000E+00   4.38922722288586E-13
     -5.01657661593408E-15  -1.63163346033058E-07  -1.63162912126913E-07  -1.23913563425272E-13
      1.42040180785555E-08
      8.00000000000000E-01   8.00000000000000E-01   0.00000000000000E+00  -9.72919915671431E-18   1.44227527725797E-13
      2.10071462940382E-17   1.44238805672934E-13   1.71121639294743E-13   0.00000000000000E+00   0.00000000000000E+00
      0.00000000000000E+00   7.13435105485250E-17  -1.96242574804794E-16   1.63162627587102E-07   1.63162627462203E-07
     -4.72080761855318E-14  -1.70000000000000E+01  -1.70000000000000E+01   0.00000000000000E+00  -6.51743754367872E-14
     -5.01657660675620E-15  -1.63162701510057E-07  -1.63162771701009E-07  -1.23913563109212E-13
      1.61258614313419E-08
      8.00000000000000E-01   8.00000000000000E-01   0.00000000000000E+00  -2.73447641221245E-15   1.37786269425376E-13
      2.06815421081496E-17   1.35072474555272E-13   1.71121639428824E-13   0.00000000000000E+00   0.00000000000000E+00
      0.00000000000000E+00  -3.90672900868475E-17  -1.96310449481794E-16   1.63162648557130E-07   1.63162648321753E-07
     -4.72080762804104E-14  -1.70000000000000E+01  -1.70000000000000E+01   0.00000000000000E+00   9.70560934523360E-15
     -5.01657660789263E-15  -1.63162788083259E-07  -1.63162783394227E-07  -1.23913563148415E-13
      1.90086264605214E-08
      8.00000000000000E-01   8.00000000000000E-01   0.00000000000000E+00   6.56126983738137E-19   1.22481923552469E-13
      2.07501970250973E-17   1.22503329876477E-13   1.71121639520783E-13   0.00000000000000E+00   0.00000000000000E+00
      0.00000000000000E+00  -1.41647409231990E-18  -1.96390615843525E-16   1.63162652811253E-07   1.63162652613446E-07
     -4.72080763820255E-14  -1.70000000000000E+01  -1.70000000000000E+01   0.00000000000000E+00  -5.35928051207956E-16
     -5.01657660761253E-15  -1.63162769564272E-07  -1.63162775116776E-07  -1.23913563138759E-13
      2.33327740042907E-08
      8.00000000000000E-01   8.00000000000000E-01   0.00000000000000E+00   2.37729590765319E-18   1.10303535930403E-13
      2.07410041198984E-17   1.10326654230431E-13   1.71121639626869E-13   0.00000000000000E+00   0.00000000000000E+00