DF-ISE text

Info {
  version   = 1.0
  type      = xyplot
  datasets  = [
    "time"
    "Ntop OuterVoltage" "Ntop InnerVoltage" "Ntop QuasiFermiPotential" "Ntop DisplacementCurrent" "Ntop eCurrent"
    "Ntop hCurrent" "Ntop TotalCurrent" "Ntop Charge" "Ptop OuterVoltage" "Ptop InnerVoltage"
    "Ptop QuasiFermiPotential" "Ptop DisplacementCurrent" "Ptop eCurrent" "Ptop hCurrent" "Ptop TotalCurrent"
    "Ptop Charge" "Pbot OuterVoltage" "Pbot InnerVoltage" "Pbot QuasiFermiPotential" "Pbot DisplacementCurrent"
    "Pbot eCurrent" "Pbot hCurrent" "Pbot TotalCurrent" "Pbot Charge" ]
  functions = [
    Time
    OuterVoltage InnerVoltage QuasiFermiPotential DisplacementCurrent eCurrent
    hCurrent TotalCurrent Charge OuterVoltage InnerVoltage
    QuasiFermiPotential DisplacementCurrent eCurrent hCurrent TotalCurrent
    Charge OuterVoltage InnerVoltage QuasiFermiPotential DisplacementCurrent
    eCurrent hCurrent TotalCurrent Charge ]
}

Data {
      5.00000000000000E-13
      8.00000000000000E-01   8.00000000000000E-01   0.00000000000000E+00   2.64553458224993E-15   1.75690871321984E-13
      2.07551425343736E-17   1.78357161046768E-13   1.71121898737636E-13   0.00000000000000E+00   0.00000000000000E+00
      0.00000000000000E+00  -1.09263642608350E-13  -1.96738351507751E-16   1.63231188653202E-07   1.63231079192821E-07
     -4.72084923834554E-14  -1.70000000000000E+01  -1.70000000000000E+01   0.00000000000000E+00  -2.81239468293180E-13
      1.31654693472426E-11  -1.63244141779860E-07  -1.63231257549981E-07  -1.23913406354180E-13
      1.25000000000000E-12
      8.00000000000000E-01   8.00000000000000E-01   0.00000000000000E+00   3.01599385400458E-14   5.31484358751177E-13
      2.07551695029486E-17   5.61665052460726E-13   1.71121898736876E-13   0.00000000000000E+00   0.00000000000000E+00
      0.00000000000000E+00   3.83453728745359E-15  -1.96738351515526E-16   1.63232607816816E-07   1.63232611454615E-07
     -4.72084923819870E-14  -1.70000000000000E+01  -1.70000000000000E+01   0.00000000000000E+00  -1.68905049513216E-12
      6.07542666749480E-11  -1.63292238335846E-07  -1.63233173119666E-07  -1.23913406354888E-13
      2.37500000000000E-12
      8.00000000000000E-01   8.00000000000000E-01   0.00000000000000E+00   1.97282609541494E-13   4.76040978246549E-12
      2.07551798377524E-17   4.95771314718682E-12   1.71121898725532E-13   0.00000000000000E+00   0.00000000000000E+00
      0.00000000000000E+00   1.35325184542917E-12  -1.96738351417818E-16   1.63249671171948E-07   1.63251024227055E-07
     -4.72084923600644E-14  -1.70000000000000E+01  -1.70000000000000E+01   0.00000000000000E+00  -1.84898918795837E-11
      5.02561717474367E-10  -1.63740053765797E-07  -1.63255981940202E-07  -1.23913406365467E-13
      4.06250000000000E-12
      8.00000000000000E-01   8.00000000000000E-01   0.00000000000000E+00   2.84559367644921E-12   9.59736271852948E-11
      2.07551107480603E-17   9.88192416168548E-11   1.71121898384553E-13   0.00000000000000E+00   0.00000000000000E+00
      0.00000000000000E+00   2.00244364068014E-11  -1.96738350679554E-16   1.63644418123403E-07   1.63664442363072E-07
     -4.72084917004207E-14  -1.70000000000000E+01  -1.70000000000000E+01   0.00000000000000E+00  -3.92849963759113E-10
      7.61998929447414E-09  -1.70990400935404E-07  -1.63763261604689E-07  -1.23913406684132E-13
      6.59375000000000E-12
      8.00000000000000E-01   8.00000000000000E-01   0.00000000000000E+00   5.46344983175857E-11   2.72594414550113E-09
      2.07551424561188E-17   2.78057866457385E-09   1.71121883606557E-13   0.00000000000000E+00   0.00000000000000E+00
      0.00000000000000E+00   4.07805861572388E-10  -1.96738321120558E-16   1.75779212132539E-07   1.76187017797373E-07
     -4.72084630018382E-14  -1.70000000000000E+01  -1.70000000000000E+01   0.00000000000000E+00  -1.16373537786237E-08
      1.52359740691759E-07  -3.19689983375081E-07  -1.78967596461946E-07  -1.23913420604718E-13
      1.03906250000000E-11
      8.00000000000000E-01   8.00000000000000E-01   0.00000000000000E+00   4.40242652963011E-10   3.55706121275497E-08
      2.07550976903307E-17   3.60108548012678E-08   1.71121568603381E-13   0.00000000000000E+00   0.00000000000000E+00
      0.00000000000000E+00   3.43524789550272E-09  -1.96738030235857E-16   3.37944255829641E-07   3.41379503528406E-07
     -4.72078473644608E-14  -1.70000000000000E+01  -1.70000000000000E+01   0.00000000000000E+00  -1.58649123166236E-07
      1.26595473709595E-06  -1.48469597225939E-06  -3.77390358329673E-07  -1.23913721238920E-13
      1.60859375000000E-11
      8.00000000000000E-01   8.00000000000000E-01   0.00000000000000E+00   2.26621979565721E-10   8.13292987845585E-08
      2.07561849730011E-17   8.15559207848804E-08   1.71119951014093E-13   0.00000000000000E+00   0.00000000000000E+00
      0.00000000000000E+00   1.84719457863745E-09  -1.96737267835349E-16   6.01634272340906E-07   6.03481466722806E-07
     -4.72046499943603E-14  -1.70000000000000E+01  -1.70000000000000E+01   0.00000000000000E+00  -3.86616859195081E-07
      6.67071123191012E-07  -9.65491651503615E-07  -6.85037387507684E-07  -1.23915301019733E-13
      2.46289062500000E-11
      8.00000000000000E-01   8.00000000000000E-01   0.00000000000000E+00   1.05962457315558E-11   1.00263858753769E-07
      2.07548344988268E-17   1.00274455020255E-07   1.71116255351147E-13   0.00000000000000E+00   0.00000000000000E+00
      0.00000000000000E+00  -1.89335467262851E-12  -1.96737036572506E-16   7.13414069824420E-07   7.13412176273010E-07
     -4.71971916089600E-14  -1.70000000000000E+01  -1.70000000000000E+01   0.00000000000000E+00  -4.77922578669081E-07
      1.23607146054996E-09  -3.37000124084738E-07  -8.13686631293269E-07  -1.23919063742187E-13
      3.74433593750000E-11
      8.00000000000000E-01   8.00000000000000E-01   0.00000000000000E+00   1.43338631261820E-11   1.04503105695733E-07
      2.07552107317195E-17   1.04517439579615E-07   1.71110685163730E-13   0.00000000000000E+00   0.00000000000000E+00
      0.00000000000000E+00  -2.90403960994645E-11  -1.96735200776709E-16   7.09475066144216E-07   7.09446025551381E-07
     -4.71855510467090E-14  -1.70000000000000E+01  -1.70000000000000E+01   0.00000000000000E+00  -4.69147725937304E-07
     -5.01678893908323E-15  -3.44815734176901E-07  -8.13963465130994E-07  -1.23925134117021E-13
      5.66650390625000E-11
      8.00000000000000E-01   8.00000000000000E-01   0.00000000000000E+00   1.47974775438472E-11   1.11920039893937E-07
      2.07552349092143E-17   1.11934837392237E-07   1.71103259746502E-13   0.00000000000000E+00   0.00000000000000E+00
      0.00000000000000E+00  -3.70604683790795E-11  -1.96689237889597E-16   6.97104034712326E-07   6.97066974047258E-07
     -4.71692645547093E-14  -1.70000000000000E+01  -1.70000000000000E+01   0.00000000000000E+00  -4.52829304710947E-07
     -5.01721269145281E-15  -3.56172501711335E-07  -8.09001811439495E-07  -1.23933995191792E-13
      8.54975585937500E-11
      8.00000000000000E-01   8.00000000000000E-01   0.00000000000000E+00   1.95692831463115E-11   1.25189515428831E-07
      2.07554088214111E-17   1.25209084732733E-07   1.71093744098668E-13   0.00000000000000E+00   0.00000000000000E+00
      0.00000000000000E+00  -4.91093059191513E-11  -1.95713151088394E-16   6.73286634753444E-07   6.73237525251812E-07
     -4.71470416919942E-14  -1.70000000000000E+01  -1.70000000000000E+01   0.00000000000000E+00  -4.28720258966957E-07
     -5.01762891006926E-15  -3.69726345999958E-07  -7.98446609984544E-07  -1.23946702406673E-13
      1.28746337890625E-10
      8.00000000000000E-01   8.00000000000000E-01   0.00000000000000E+00   2.94657142543867E-11   1.53961586622274E-07
      2.07557425665489E-17   1.53991052357284E-07   1.71082361066714E-13   0.00000000000000E+00   0.00000000000000E+00
      0.00000000000000E+00  -6.52832388407078E-11  -1.79609108142200E-16   6.26149300893932E-07   6.26084017475482E-07
     -4.71178410979594E-14  -1.70000000000000E+01  -1.70000000000000E+01   0.00000000000000E+00  -3.95608202490848E-07
     -5.01817341339173E-15  -3.84466862323744E-07  -7.80075069832766E-07  -1.23964519968755E-13
      1.93619506835937E-10
      8.00000000000000E-01   8.00000000000000E-01   0.00000000000000E+00   3.94926943668883E-11   2.15139221014747E-07
      2.07558232407943E-17   2.15178713729870E-07   1.71070982702117E-13   0.00000000000000E+00   0.00000000000000E+00
      0.00000000000000E+00  -7.92660044378184E-11   1.32729672044804E-17   5.36761726282988E-07   5.36682460291824E-07
     -4.70821808704978E-14  -1.70000000000000E+01  -1.70000000000000E+01   0.00000000000000E+00  -3.53713742399173E-07
     -5.01889696420058E-15  -3.98147426603622E-07  -7.51861174021692E-07  -1.23988801831619E-13
      2.42274383544922E-10
      8.00000000000000E-01   8.00000000000000E-01   0.00000000000000E+00   4.13791596025591E-11   2.68501009751820E-07
      2.07559494366693E-17   2.68542388932178E-07   1.71066738529185E-13   0.00000000000000E+00   0.00000000000000E+00
      0.00000000000000E+00  -8.14402123392888E-11   4.96920442353769E-16   4.62710638898601E-07   4.62629199183183E-07
     -4.70613783001263E-14  -1.70000000000000E+01  -1.70000000000000E+01   0.00000000000000E+00  -3.27204968437142E-07
     -5.01938837238930E-15  -4.03966614658829E-07  -7.31171588115360E-07  -1.24005360229059E-13
      3.15256698608398E-10
      8.00000000000000E-01   8.00000000000000E-01   0.00000000000000E+00   3.72574801638587E-11   3.46418272401086E-07
      2.07562734504686E-17   3.46455529902006E-07   1.71066806387826E-13   0.00000000000000E+00   0.00000000000000E+00
      0.00000000000000E+00  -7.56195803408079E-11   2.34578415146677E-15   3.54001675872476E-07   3.53926058637919E-07
     -4.70388656320769E-14  -1.70000000000000E+01  -1.70000000000000E+01   0.00000000000000E+00  -2.91893797966190E-07
     -5.02005916395490E-15  -4.08487785553674E-07  -7.00381588539924E-07  -1.24027940755749E-13
      3.69993434906006E-10
      8.00000000000000E-01   8.00000000000000E-01   0.00000000000000E+00   3.06999396329836E-11   3.96625448053866E-07
      2.07564934438190E-17   3.96656148014255E-07   1.71071324542528E-13   0.00000000000000E+00   0.00000000000000E+00
      0.00000000000000E+00  -6.68194199489883E-11   4.96638336643531E-15   2.80293735856696E-07   2.80226921403131E-07
     -4.70280855333841E-14  -1.70000000000000E+01  -1.70000000000000E+01   0.00000000000000E+00  -2.67137934515137E-07
     -5.02051400978875E-15  -4.09745129881736E-07  -6.76883069417387E-07  -1.24043239009144E-13
      4.11045987129211E-10
      8.00000000000000E-01   8.00000000000000E-01   0.00000000000000E+00   2.49795977344494E-11   4.27416172241141E-07
      2.07566735192830E-17   4.27441151859632E-07   1.71076767302001E-13   0.00000000000000E+00   0.00000000000000E+00
      0.00000000000000E+00  -5.92066270713540E-11   7.76142821804977E-15   2.31424148543468E-07   2.31364949677825E-07
     -4.70229368659892E-14  -1.70000000000000E+01  -1.70000000000000E+01   0.00000000000000E+00  -2.48860605957281E-07
     -5.02082898400941E-15  -4.09945490559348E-07  -6.58806101537458E-07  -1.24053830436012E-13
      4.72624815464020E-10
      8.00000000000000E-01   8.00000000000000E-01   0.00000000000000E+00   1.65439420114254E-11   4.61796788434620E-07
      2.07567193273993E-17   4.61813332397388E-07   1.71087429056297E-13   0.00000000000000E+00   0.00000000000000E+00
      0.00000000000000E+00  -4.79816974929377E-11   1.33512494639908E-14   1.69126180867536E-07   1.69078212521293E-07
     -4.70191187301668E-14  -1.70000000000000E+01  -1.70000000000000E+01   0.00000000000000E+00  -2.21411378427249E-07
     -5.02125956747927E-15  -4.09480161470173E-07  -6.30891544918681E-07  -1.24068310326129E-13
      5.18808936715126E-10
      8.00000000000000E-01   8.00000000000000E-01   0.00000000000000E+00   1.09372600645041E-11   4.78859755719836E-07
      2.07568207974892E-17   4.78870693000657E-07   1.71096885532160E-13   0.00000000000000E+00   0.00000000000000E+00
      0.00000000000000E+00  -4.04774324873621E-11   1.86209006998363E-14   1.30571153334413E-07   1.30530694522827E-07
     -4.70188278471814E-14  -1.70000000000000E+01  -1.70000000000000E+01   0.00000000000000E+00  -2.00685871529582E-07
     -5.02154935353406E-15  -4.08715510972352E-07  -6.09401387523483E-07  -1.24078057684979E-13
      5.88085118591785E-10
      8.00000000000000E-01   8.00000000000000E-01   0.00000000000000E+00   4.24578690519976E-12   4.92905571758330E-07
      2.07568664655234E-17   4.92909817565992E-07   1.71112492330513E-13   0.00000000000000E+00   0.00000000000000E+00
      0.00000000000000E+00  -3.13652029403757E-11   2.81160554668166E-14   8.37187366211883E-08   8.36873995343034E-08
     -4.70216142616644E-14  -1.70000000000000E+01  -1.70000000000000E+01   0.00000000000000E+00  -1.69431783928822E-07
     -5.02193035460164E-15  -4.07165428149542E-07  -5.76597217100294E-07  -1.24090878068848E-13
      6.91999391406774E-10
      8.00000000000000E-01   8.00000000000000E-01   0.00000000000000E+00  -2.27616695295245E-12   4.95363654212746E-07
      2.07568911579113E-17   4.95361378066550E-07   1.71137315028678E-13   0.00000000000000E+00   0.00000000000000E+00
      0.00000000000000E+00  -2.18914495841250E-11   4.53695760907971E-14   3.18940045462305E-08   3.18721584662225E-08
     -4.70312528405210E-14  -1.70000000000000E+01  -1.70000000000000E+01   0.00000000000000E+00  -1.22905010020361E-07
     -5.02238130638530E-15  -4.04328521490030E-07  -5.27233536532773E-07  -1.24106062188157E-13
      7.69935096018016E-10
      8.00000000000000E-01   8.00000000000000E-01   0.00000000000000E+00  -5.27576955942328E-12   4.87457884205309E-07
      2.07568895636028E-17   4.87452608456507E-07   1.71155998526956E-13   0.00000000000000E+00   0.00000000000000E+00
      0.00000000000000E+00  -1.68402574191046E-11   6.01158148693617E-14   3.61572665093753E-09   3.59894650933330E-09
     -4.70416812288687E-14  -1.70000000000000E+01  -1.70000000000000E+01   0.00000000000000E+00  -8.90589654159152E-08
     -5.02262628082836E-15  -4.01992584527298E-07  -4.91051554965840E-07  -1.24114317298087E-13
      8.86838652934879E-10
      8.00000000000000E-01   8.00000000000000E-01   0.00000000000000E+00  -8.62046776071071E-12   4.65651148573265E-07
      2.07569368501402E-17   4.65642528126261E-07   1.71182726430227E-13   0.00000000000000E+00   0.00000000000000E+00
      0.00000000000000E+00  -9.98279207849399E-12   8.37348364195118E-14  -2.56092535282315E-08  -2.56191525854736E-08
     -4.70607930360310E-14  -1.70000000000000E+01  -1.70000000000000E+01   0.00000000000000E+00  -4.16665559858854E-08
     -5.02285207637693E-15  -3.98356814532050E-07  -4.40023375540787E-07  -1.24121933394197E-13
      9.74516320622526E-10
      8.00000000000000E-01   8.00000000000000E-01   0.00000000000000E+00  -1.09293250097048E-11   4.42636131972114E-07
      2.07567618666612E-17   4.42625202667861E-07   1.71201110945669E-13   0.00000000000000E+00   0.00000000000000E+00
      0.00000000000000E+00  -4.54494761808382E-12   1.01603732093185E-13  -3.72879084371787E-08  -3.72923517810646E-08
     -4.70769368204518E-14  -1.70000000000000E+01  -1.70000000000000E+01   0.00000000000000E+00  -9.75663140302716E-09
     -5.02291834877559E-15  -3.95576214460851E-07  -4.05332850886797E-07  -1.24124174125217E-13
      1.10603282215400E-09
      8.00000000000000E-01   8.00000000000000E-01   0.00000000000000E+00  -1.42497506370059E-11   3.97959059352204E-07
      2.07565367786777E-17   3.97944809622323E-07   1.71224830701781E-13   0.00000000000000E+00   0.00000000000000E+00
      0.00000000000000E+00   3.86692283879597E-12   1.26495547383762E-13  -3.75193126316241E-08  -3.75153192132379E-08
     -4.71020980422159E-14  -1.70000000000000E+01  -1.70000000000000E+01   0.00000000000000E+00   3.08986590670710E-08
     -5.02287527302261E-15  -3.91328144453281E-07  -3.60429490409085E-07  -1.24122732659566E-13
      1.20467019830260E-09
      8.00000000000000E-01   8.00000000000000E-01   0.00000000000000E+00  -1.61964893425036E-11   3.57333700010769E-07
      2.07564059305281E-17   3.57317503542183E-07   1.71238870805310E-13   0.00000000000000E+00   0.00000000000000E+00
      0.00000000000000E+00   9.40745109584501E-12   1.42421723247273E-13  -2.47153706132170E-08  -2.47058207403979E-08
     -4.71204168872911E-14  -1.70000000000000E+01  -1.70000000000000E+01   0.00000000000000E+00   5.54235300308959E-08
     -5.02274813400111E-15  -3.88035207809933E-07  -3.32611682801785E-07  -1.24118453918019E-13
      1.35262626252550E-09
      8.00000000000000E-01   8.00000000000000E-01   0.00000000000000E+00  -1.73364996327370E-11   2.89847453528569E-07
      2.07562479846566E-17   2.89830117049693E-07   1.71252806034873E-13   0.00000000000000E+00   0.00000000000000E+00
      0.00000000000000E+00   1.45905292121696E-11   1.60079657537790E-13   9.62734691063600E-09   9.64209751950570E-09
     -4.71446744258125E-14  -1.70000000000000E+01  -1.70000000000000E+01   0.00000000000000E+00   8.32547238590777E-08
     -5.02244167007087E-15  -3.82726933405834E-07  -2.99472214569198E-07  -1.24108131609061E-13
      1.46359331069268E-09
      8.00000000000000E-01   8.00000000000000E-01   0.00000000000000E+00  -1.66205333084735E-11   2.38693327351651E-07
      2.07559364013241E-17   2.38676706839099E-07   1.71257401577930E-13   0.00000000000000E+00   0.00000000000000E+00
      0.00000000000000E+00   1.55997232014629E-11   1.67865473316960E-13   4.15327675731388E-08   4.15485351618136E-08
     -4.71593502307295E-14  -1.70000000000000E+01  -1.70000000000000E+01   0.00000000000000E+00   9.80339771344070E-08
     -5.02214250180850E-15  -3.78259214113176E-07  -2.80225242000912E-07  -1.24098051347200E-13
      1.63004388294345E-09
      8.00000000000000E-01   8.00000000000000E-01   0.00000000000000E+00  -1.37072125755171E-11   1.70036827588273E-07
      2.07556948042615E-17   1.70023120396453E-07   1.71255597921342E-13   0.00000000000000E+00   0.00000000000000E+00
      0.00000000000000E+00   1.35132844202934E-11   1.70929501660177E-13   8.76332799398177E-08   8.76469641537397E-08
     -4.71751329792571E-14  -1.70000000000000E+01  -1.70000000000000E+01   0.00000000000000E+00   1.12591328284989E-07
     -5.02162071965424E-15  -3.70261407813562E-07  -2.57670084550194E-07  -1.24080464942084E-13
      1.75488181213153E-09
      8.00000000000000E-01   8.00000000000000E-01   0.00000000000000E+00  -1.08778403598420E-11   1.28432021048905E-07
      2.07556930740777E-17   1.28421143229301E-07   1.71248563815638E-13   0.00000000000000E+00   0.00000000000000E+00
      0.00000000000000E+00   1.04528819613212E-11   1.67251408481485E-13   1.15799931216136E-07   1.15810551349506E-07
     -4.71825524650017E-14  -1.70000000000000E+01  -1.70000000000000E+01   0.00000000000000E+00   1.18655892473872E-07
     -5.02119204244409E-15  -3.62887582031487E-07  -2.44231694578808E-07  -1.24066011350637E-13
      1.94213870591364E-09
      8.00000000000000E-01   8.00000000000000E-01   0.00000000000000E+00  -6.98780625781575E-12   8.32731684593632E-08
      2.07554120966922E-17   8.32661806738608E-08   1.71232022927845E-13   0.00000000000000E+00   0.00000000000000E+00
      0.00000000000000E+00   5.85651641937192E-12   1.54653431683288E-13   1.44282000255148E-07   1.44288011424999E-07
     -4.71885508774079E-14  -1.70000000000000E+01  -1.70000000000000E+01   0.00000000000000E+00   1.21481991009261E-07
     -5.02052392482573E-15  -3.49036178087596E-07  -2.27554192098860E-07  -1.24043472050436E-13
      2.08258137625022E-09
      8.00000000000000E-01   8.00000000000000E-01   0.00000000000000E+00  -4.79512008573185E-12   6.09306087556492E-08
      2.07553437814450E-17   6.09258136563189E-08   1.71216944973077E-13   0.00000000000000E+00   0.00000000000000E+00
      0.00000000000000E+00   3.23447360330697E-12   1.41463638454554E-13   1.56094898220147E-07   1.56098274157389E-07
     -4.71904001368723E-14  -1.70000000000000E+01  -1.70000000000000E+01   0.00000000000000E+00   1.19283877621032E-07
     -5.02002253071491E-15  -3.36307960414718E-07  -2.17024087813708E-07  -1.24026544836205E-13
      2.29324538175510E-09
      8.00000000000000E-01   8.00000000000000E-01   0.00000000000000E+00  -2.70099967927408E-12   3.97825922638528E-08
      2.07553548461378E-17   3.97798912849288E-08   1.71193501512689E-13   0.00000000000000E+00   0.00000000000000E+00
      0.00000000000000E+00   8.84683290591299E-13   1.19149099491309E-13   1.63836579704728E-07   1.63837583537118E-07
     -4.71911892275524E-14  -1.70000000000000E+01  -1.70000000000000E+01   0.00000000000000E+00   1.10254542733121E-07
     -5.01930543893397E-15  -3.13872012535862E-07  -2.03617474822046E-07  -1.24002312285137E-13
      2.45124338588376E-09
      8.00000000000000E-01   8.00000000000000E-01   0.00000000000000E+00  -1.82210283928140E-12   3.01377252241319E-08
      2.07552511043167E-17   3.01359031420479E-08   1.71176833149744E-13   0.00000000000000E+00   0.00000000000000E+00
      0.00000000000000E+00   6.77774031631813E-14   1.02197650510052E-13   1.65088866181789E-07   1.65089036156843E-07
     -4.71911421039134E-14  -1.70000000000000E+01  -1.70000000000000E+01   0.00000000000000E+00   9.99412251005068E-08
     -5.01881414133228E-15  -2.95166159380584E-07  -1.95224939298891E-07  -1.23985691045830E-13
      2.56974188898025E-09
      8.00000000000000E-01   8.00000000000000E-01   0.00000000000000E+00  -1.39593744495860E-12   2.49687429321430E-08
      2.07552719681009E-17   2.49673470154533E-08   1.71165437090214E-13   0.00000000000000E+00   0.00000000000000E+00
      0.00000000000000E+00  -2.28791939990017E-13   9.01019949239407E-14   1.64827635868230E-07   1.64827497178285E-07
     -4.71910557097642E-14  -1.70000000000000E+01  -1.70000000000000E+01   0.00000000000000E+00   9.08708874563085E-08
     -5.01848015268147E-15  -2.80665726631567E-07  -1.89794844193738E-07  -1.23974381380450E-13
      2.74748964362499E-09
      8.00000000000000E-01   8.00000000000000E-01   0.00000000000000E+00  -9.71179843206049E-13   1.92827483894648E-08
      2.07552606804097E-17   1.92817772303769E-08   1.71150565945952E-13   0.00000000000000E+00   0.00000000000000E+00
      0.00000000000000E+00  -3.93511628133978E-13   7.36049210822427E-14   1.63671132099431E-07   1.63670812192724E-07
     -4.71910398771132E-14  -1.70000000000000E+01  -1.70000000000000E+01   0.00000000000000E+00   7.62283133548108E-08
     -5.01804188619630E-15  -2.59180897759870E-07  -1.82952589423101E-07  -1.23959526068839E-13
      2.88080045960855E-09
      8.00000000000000E-01   8.00000000000000E-01   0.00000000000000E+00  -7.60436804169371E-13   1.61498461439077E-08
      2.07552939720205E-17   1.61490857278589E-08   1.71141269350466E-13   0.00000000000000E+00   0.00000000000000E+00
      0.00000000000000E+00  -3.91110407833233E-13   6.27449825550920E-14   1.62628610155400E-07   1.62628281789974E-07
     -4.71911633640680E-14  -1.70000000000000E+01  -1.70000000000000E+01   0.00000000000000E+00   6.51208920870952E-08
     -5.01776426938860E-15  -2.43898254587164E-07  -1.78777367517833E-07  -1.23950105986399E-13
      3.08076668358388E-09
      8.00000000000000E-01   8.00000000000000E-01   0.00000000000000E+00  -5.42046004638371E-13   1.26230498048211E-08
      2.07551905063590E-17   1.26225077795717E-08   1.71130234756714E-13   0.00000000000000E+00   0.00000000000000E+00
      0.00000000000000E+00  -3.06602312281765E-13   4.90039519515801E-14   1.61245270686083E-07   1.61245013087723E-07
     -4.71915698395415E-14  -1.70000000000000E+01  -1.70000000000000E+01   0.00000000000000E+00   4.94604190817029E-08
     -5.01742745559045E-15  -2.23327934931571E-07  -1.73867520867296E-07  -1.23938664917173E-13
      3.38071601954688E-09
      8.00000000000000E-01   8.00000000000000E-01   0.00000000000000E+00  -3.40622110902390E-13   9.05146061595088E-09
      2.07551177212098E-17   9.05112001459509E-09   1.71119353951353E-13   0.00000000000000E+00   0.00000000000000E+00
      0.00000000000000E+00  -1.40886758606291E-13   3.36681773804834E-14   1.59923490560638E-07   1.59923383342057E-07
     -4.71925457139309E-14  -1.70000000000000E+01  -1.70000000000000E+01   0.00000000000000E+00   3.00926122339879E-08
     -5.01707893845137E-15  -1.99067110573561E-07  -1.68974503356652E-07  -1.23926808237421E-13
      3.83064002349138E-09
      8.00000000000000E-01   8.00000000000000E-01   0.00000000000000E+00  -1.81176437723402E-13   5.90600408990017E-09
      2.07551675755074E-17   5.90582293421761E-09   1.71111986823339E-13   0.00000000000000E+00   0.00000000000000E+00
      0.00000000000000E+00   2.75707903248981E-14   1.98261822890423E-14   1.59444647686881E-07   1.59444695083854E-07
     -4.71943504764288E-14  -1.70000000000000E+01  -1.70000000000000E+01   0.00000000000000E+00   1.17084932479239E-08
     -5.01680990582217E-15  -1.77059006249186E-07  -1.65350518018072E-07  -1.23917636346910E-13
      4.50552602940813E-09
      8.00000000000000E-01   8.00000000000000E-01   0.00000000000000E+00  -8.06209987103495E-14   3.56341869548948E-09
      2.07551685901765E-17   3.56333809524594E-09   1.71110505897698E-13   0.00000000000000E+00   0.00000000000000E+00
      0.00000000000000E+00   9.21076972031972E-14   1.09960836211167E-14   1.60267454391674E-07   1.60267557495454E-07
     -4.71968486268152E-14  -1.70000000000000E+01  -1.70000000000000E+01   0.00000000000000E+00   1.24953728858251E-09
     -5.01669356838173E-15  -1.65080427862589E-07  -1.63830895590700E-07  -1.23913657270882E-13
      5.01169053384569E-09
      8.00000000000000E-01   8.00000000000000E-01   0.00000000000000E+00  -5.03283724973148E-14   2.66569726738002E-09
      2.07551926781303E-17   2.66564695976271E-09   1.71111711806983E-13   0.00000000000000E+00   0.00000000000000E+00
      0.00000000000000E+00   7.32318104433313E-14   8.77236319381326E-15   1.61056452441758E-07   1.61056534445932E-07
     -4.71982787166008E-14  -1.70000000000000E+01  -1.70000000000000E+01   0.00000000000000E+00  -1.79108699461961E-10
     -5.01668713127685E-15  -1.63543067689545E-07  -1.63722181405694E-07  -1.23913433090383E-13
      5.77093729050203E-09
      8.00000000000000E-01   8.00000000000000E-01   0.00000000000000E+00  -2.79710335882502E-14   1.86397973184011E-09
      2.07551236581925E-17   1.86395178156164E-09   1.71113408856675E-13   0.00000000000000E+00   0.00000000000000E+00
      0.00000000000000E+00   4.06435276035109E-14   7.47570991027261E-15   1.61859104957320E-07   1.61859153076558E-07
     -4.71998077555957E-14  -1.70000000000000E+01  -1.70000000000000E+01   0.00000000000000E+00  -2.07235365589093E-10
     -5.01669212430505E-15  -1.63515864475838E-07  -1.63723104858119E-07  -1.23913601101079E-13
      6.90980742548655E-09
      8.00000000000000E-01   8.00000000000000E-01   0.00000000000000E+00  -1.35654833095741E-14   1.22944526022991E-09
      2.07551600831906E-17   1.22943171550176E-09   1.71114979698935E-13   0.00000000000000E+00   0.00000000000000E+00
      0.00000000000000E+00   1.60010129962691E-14   6.63285778096574E-15   1.62439677745656E-07   1.62439700379527E-07
     -4.72013013302408E-14  -1.70000000000000E+01  -1.70000000000000E+01   0.00000000000000E+00   4.00175228116127E-11
     -5.01669439653819E-15  -1.63709144601147E-07  -1.63669132095030E-07  -1.23913678368694E-13
      7.76396002672493E-09
      8.00000000000000E-01   8.00000000000000E-01   0.00000000000000E+00  -8.71841999438031E-15   9.69965631036672E-10
      2.07551830624036E-17   9.69956933371861E-10   1.71115726736393E-13   0.00000000000000E+00   0.00000000000000E+00
      0.00000000000000E+00   9.88787497643918E-15   6.14133854936588E-15   1.62641753728112E-07   1.62641769757325E-07
     -4.72020875155079E-14  -1.70000000000000E+01  -1.70000000000000E+01   0.00000000000000E+00   4.66542281316984E-11
     -5.01669323290326E-15  -1.63658375902135E-07  -1.63611726690696E-07  -1.23913639220885E-13
      9.04518892858251E-09
      8.00000000000000E-01   8.00000000000000E-01   0.00000000000000E+00  -5.00002589785542E-15   7.32138151800199E-10
      2.07551399259877E-17   7.32133172529441E-10   1.71116595264756E-13   0.00000000000000E+00   0.00000000000000E+00
      0.00000000000000E+00   5.43266491345055E-15   5.46005731211215E-15   1.62818488203962E-07   1.62818499096684E-07
     -4.72029993530879E-14  -1.70000000000000E+01  -1.70000000000000E+01   0.00000000000000E+00   2.28271306016644E-11
     -5.01669193711868E-15  -1.63573454383123E-07  -1.63550632269213E-07  -1.23913595911668E-13
      1.09670322813689E-08
      8.00000000000000E-01   8.00000000000000E-01   0.00000000000000E+00  -2.74561519932125E-15   5.31726917806563E-10
      2.07552412298326E-17   5.31724192946605E-10   1.71117573815733E-13   0.00000000000000E+00   0.00000000000000E+00
      0.00000000000000E+00   2.60882161370854E-15   4.58615186907657E-15   1.62958960237520E-07   1.62958967432494E-07
     -4.72040124890752E-14  -1.70000000000000E+01  -1.70000000000000E+01   0.00000000000000E+00   1.42592533101237E-11
     -5.01669088504670E-15  -1.63504945862059E-07  -1.63490691625440E-07  -1.23913561326657E-13
      1.38497973105484E-08
      8.00000000000000E-01   8.00000000000000E-01   0.00000000000000E+00  -1.55090327724695E-15   3.64671771076528E-10
      2.07551680054741E-17   3.64670240928419E-10   1.71118612644789E-13   0.00000000000000E+00   0.00000000000000E+00
      0.00000000000000E+00   1.33798319167557E-15   3.57194890194891E-15   1.63064635700097E-07   1.63064640610029E-07
     -4.72050860413267E-14  -1.70000000000000E+01  -1.70000000000000E+01   0.00000000000000E+00   9.88702995256721E-12
     -5.01668981890723E-15  -1.63439192864220E-07  -1.63429310850957E-07  -1.23913526603463E-13
      1.81739448543178E-08
      8.00000000000000E-01   8.00000000000000E-01   0.00000000000000E+00  -8.33871549866427E-16   2.24839006376726E-10
      2.07551492908786E-17   2.24838193260326E-10   1.71119630650811E-13   0.00000000000000E+00   0.00000000000000E+00