DF-ISE text

Info {
  version   = 1.0
  type      = xyplot
  datasets  = [
    "time"
    "Ntop OuterVoltage" "Ntop InnerVoltage" "Ntop QuasiFermiPotential" "Ntop DisplacementCurrent" "Ntop eCurrent"
    "Ntop hCurrent" "Ntop TotalCurrent" "Ntop Charge" "Ptop OuterVoltage" "Ptop InnerVoltage"
    "Ptop QuasiFermiPotential" "Ptop DisplacementCurrent" "Ptop eCurrent" "Ptop hCurrent" "Ptop TotalCurrent"
    "Ptop Charge" "Pbot OuterVoltage" "Pbot InnerVoltage" "Pbot QuasiFermiPotential" "Pbot DisplacementCurrent"
    "Pbot eCurrent" "Pbot hCurrent" "Pbot TotalCurrent" "Pbot Charge" ]
  functions = [
    Time
    OuterVoltage InnerVoltage QuasiFermiPotential DisplacementCurrent eCurrent
    hCurrent TotalCurrent Charge OuterVoltage InnerVoltage
    QuasiFermiPotential DisplacementCurrent eCurrent hCurrent TotalCurrent
    Charge OuterVoltage InnerVoltage QuasiFermiPotential DisplacementCurrent
    eCurrent hCurrent TotalCurrent Charge ]
}

Data {
      5.00000000000000E-13
      8.00000000000000E-01   8.00000000000000E-01   0.00000000000000E+00   2.25580608252458E-15   1.79281371956197E-13
      2.07551724276001E-17   1.81557933211150E-13   1.71121898737632E-13   0.00000000000000E+00   0.00000000000000E+00
      0.00000000000000E+00  -1.07007795031703E-13  -1.96738351504546E-16   1.63231198837049E-07   1.63231091632516E-07
     -4.72084923834475E-14  -1.70000000000000E+01  -1.70000000000000E+01   0.00000000000000E+00  -2.92593424621496E-13
      1.37014112031456E-11  -1.63244682008228E-07  -1.63231273190449E-07  -1.23913406354184E-13
      1.25000000000000E-12
      8.00000000000000E-01   8.00000000000000E-01   0.00000000000000E+00   3.18048711697575E-14   5.48614623425555E-13
      2.07551331689659E-17   5.80440249728482E-13   1.71121898736841E-13   0.00000000000000E+00   0.00000000000000E+00
      0.00000000000000E+00   1.07331887446739E-14  -1.96738351498771E-16   1.63232676540014E-07   1.63232687076464E-07
     -4.72084923819190E-14  -1.70000000000000E+01  -1.70000000000000E+01   0.00000000000000E+00  -1.75849900220892E-12
      6.32267223615019E-11  -1.63294735740073E-07  -1.63233267516713E-07  -1.23913406354921E-13
      2.37500000000000E-12
      8.00000000000000E-01   8.00000000000000E-01   0.00000000000000E+00   2.04961370297895E-13   4.95087656964682E-12
      2.07551366187388E-17   5.15585869508133E-12   1.71121898725036E-13   0.00000000000000E+00   0.00000000000000E+00
      0.00000000000000E+00   1.40546247103738E-12  -1.96738351541435E-16   1.63250442230269E-07   1.63251847496002E-07
     -4.72084923591049E-14  -1.70000000000000E+01  -1.70000000000000E+01   0.00000000000000E+00  -1.92418782721403E-11
      5.23012485011631E-10  -1.63760773961436E-07  -1.63257003354696E-07  -1.23913406365930E-13
      4.06250000000000E-12
      8.00000000000000E-01   8.00000000000000E-01   0.00000000000000E+00   2.96127654396947E-12   9.98743153560739E-11
      2.07551512505401E-17   1.02835612655195E-10   1.71121898370187E-13   0.00000000000000E+00   0.00000000000000E+00
      0.00000000000000E+00   2.08402939151895E-11  -1.96738352794832E-16   1.63661246452878E-07   1.63682086550055E-07
     -4.72084916726276E-14  -1.70000000000000E+01  -1.70000000000000E+01   0.00000000000000E+00  -4.08832282868176E-10
      7.93006698505812E-09  -1.71306156864900E-07  -1.63784922162710E-07  -1.23913406697559E-13
      6.59375000000000E-12
      8.00000000000000E-01   8.00000000000000E-01   0.00000000000000E+00   5.68574353799785E-11   2.83684099952736E-09
      2.07553378855919E-17   2.89369845566267E-09   1.71121882992135E-13   0.00000000000000E+00   0.00000000000000E+00
      0.00000000000000E+00   4.24400603093860E-10  -1.96738337756643E-16   1.76289853794266E-07   1.76714254200621E-07
     -4.72084618075532E-14  -1.70000000000000E+01  -1.70000000000000E+01   0.00000000000000E+00  -1.21108920615725E-08
      1.58559661079894E-07  -3.26056721674606E-07  -1.79607952656284E-07  -1.23913421184582E-13
      1.03906250000000E-11
      8.00000000000000E-01   8.00000000000000E-01   0.00000000000000E+00   4.58134593339496E-10   3.70170578939193E-08
      2.07548705243144E-17   3.74751925080136E-08   1.71121555208049E-13   0.00000000000000E+00   0.00000000000000E+00
      0.00000000000000E+00   3.57507682880988E-09  -1.96737967061422E-16   3.45055016950055E-07   3.48630093582127E-07
     -4.72078211570665E-14  -1.70000000000000E+01  -1.70000000000000E+01   0.00000000000000E+00  -1.65103948566675E-07
      1.31746977854988E-06  -1.53847111607335E-06  -3.86105286090139E-07  -1.23913734050982E-13
      1.60859375000000E-11
      8.00000000000000E-01   8.00000000000000E-01   0.00000000000000E+00   2.35734665592530E-10   8.46274406935440E-08
      2.07561237490526E-17   8.48631753798927E-08   1.71119872162682E-13   0.00000000000000E+00   0.00000000000000E+00
      0.00000000000000E+00   1.92253363172293E-09  -1.96737481248785E-16   6.19486574722989E-07   6.21409108157975E-07
     -4.72044940869329E-14  -1.70000000000000E+01  -1.70000000000000E+01   0.00000000000000E+00  -4.02334173558516E-07
      6.94216008927598E-07  -9.98154118906950E-07  -7.06272283537868E-07  -1.23915378075749E-13
      2.46289062500000E-11
      8.00000000000000E-01   8.00000000000000E-01   0.00000000000000E+00   1.09201542978554E-11   1.04306278444279E-07
      2.07552360905321E-17   1.04317198619332E-07   1.71116027739746E-13   0.00000000000000E+00   0.00000000000000E+00
      0.00000000000000E+00  -1.81419409374648E-12  -1.96736842648032E-16   7.35842151907161E-07   7.35840337516330E-07
     -4.71967341039677E-14  -1.70000000000000E+01  -1.70000000000000E+01   0.00000000000000E+00  -4.97321207618998E-07
      1.28637067650393E-09  -3.44122699193166E-07  -8.40157536135660E-07  -1.23919293635779E-13
      3.74433593750000E-11
      8.00000000000000E-01   8.00000000000000E-01   0.00000000000000E+00   1.48562855346317E-11   1.08690297783463E-07
      2.07550967055866E-17   1.08705154089753E-07   1.71110234407511E-13   0.00000000000000E+00   0.00000000000000E+00
      0.00000000000000E+00  -3.01469132807240E-11  -1.96735067586057E-16   7.31768830094068E-07   7.31738682984052E-07
     -4.71846242316423E-14  -1.70000000000000E+01  -1.70000000000000E+01   0.00000000000000E+00  -4.88156033311444E-07
     -5.01679576046340E-15  -3.52287798745566E-07  -8.40443837073806E-07  -1.23925610175868E-13
      5.66650390625000E-11
      8.00000000000000E-01   8.00000000000000E-01   0.00000000000000E+00   1.53704391554919E-11   1.16385739293850E-07
      2.07549332350960E-17   1.16401109753760E-07   1.71102511764991E-13   0.00000000000000E+00   0.00000000000000E+00
      0.00000000000000E+00  -3.85406419652144E-11  -1.96687284934603E-16   7.18913049988274E-07   7.18874509149621E-07
     -4.71676817774431E-14  -1.70000000000000E+01  -1.70000000000000E+01   0.00000000000000E+00  -4.71148645271243E-07
     -5.01723570871880E-15  -3.64126968614901E-07  -8.35275618903380E-07  -1.23934829987547E-13
      8.54975585937500E-11
      8.00000000000000E-01   8.00000000000000E-01   0.00000000000000E+00   2.03675070011172E-11   1.30185169736884E-07
      2.07552631760175E-17   1.30205537264640E-07   1.71092614106364E-13   0.00000000000000E+00   0.00000000000000E+00
      0.00000000000000E+00  -5.11219690114568E-11  -1.95671409890593E-16   6.94129834002256E-07   6.94078711837573E-07
     -4.71445630912383E-14  -1.70000000000000E+01  -1.70000000000000E+01   0.00000000000000E+00  -4.46047765408621E-07
     -5.01766770127239E-15  -3.78236478675923E-07  -8.24284249102211E-07  -1.23948051015126E-13
      1.28746337890625E-10
      8.00000000000000E-01   8.00000000000000E-01   0.00000000000000E+00   3.06679372302459E-11   1.60133787430740E-07
      2.07558953622511E-17   1.60164455388726E-07   1.71080772183165E-13   0.00000000000000E+00   0.00000000000000E+00
      0.00000000000000E+00  -6.79450975779826E-11  -1.78911315992220E-16   6.45063816117070E-07   6.44995870840580E-07
     -4.71141835468060E-14  -1.70000000000000E+01  -1.70000000000000E+01   0.00000000000000E+00  -4.11595719047797E-07
     -5.01823352716612E-15  -3.93564602163276E-07  -8.05160326229307E-07  -1.23966588636359E-13
      1.93619506835937E-10
      8.00000000000000E-01   8.00000000000000E-01   0.00000000000000E+00   4.10421585103196E-11   2.23754242389740E-07
      2.07556331689004E-17   2.23795284569006E-07   1.71068931015586E-13   0.00000000000000E+00   0.00000000000000E+00
      0.00000000000000E+00  -8.24014292579947E-11   2.18396646712899E-17   5.52090368266328E-07   5.52007966858909E-07
     -4.70770786654582E-14  -1.70000000000000E+01  -1.70000000000000E+01   0.00000000000000E+00  -3.68026245444196E-07
     -5.01898605691252E-15  -4.07777000964733E-07  -7.75803251427915E-07  -1.23991852350129E-13
      2.42274383544922E-10
      8.00000000000000E-01   8.00000000000000E-01   0.00000000000000E+00   4.29682669546270E-11   2.79186702193611E-07
      2.07559945104979E-17   2.79229670481322E-07   1.71064507580428E-13   0.00000000000000E+00   0.00000000000000E+00
      0.00000000000000E+00  -8.46172435218066E-11   5.25242275899646E-16   4.75131128181284E-07   4.75046511463004E-07
     -4.70554264304494E-14  -1.70000000000000E+01  -1.70000000000000E+01   0.00000000000000E+00  -3.40460283678575E-07
     -5.01949730712440E-15  -4.13815893246252E-07  -7.54276181944325E-07  -1.24009081149978E-13
      3.15256698608398E-10
      8.00000000000000E-01   8.00000000000000E-01   0.00000000000000E+00   3.86641648729558E-11   3.60072914294722E-07
      2.07561967565712E-17   3.60111578480351E-07   1.71064554329173E-13   0.00000000000000E+00   0.00000000000000E+00
      0.00000000000000E+00  -7.85516080884401E-11   2.44974653590111E-15   3.62194804323681E-07   3.62116255165339E-07
     -4.70319775286137E-14  -1.70000000000000E+01  -1.70000000000000E+01   0.00000000000000E+00  -3.03726970519565E-07
     -5.02019524056451E-15  -4.18500858105929E-07  -7.22227833645689E-07  -1.24032576800559E-13
      3.69993434906006E-10
      8.00000000000000E-01   8.00000000000000E-01   0.00000000000000E+00   3.18512055727553E-11   4.12171776601775E-07
      2.07563871067762E-17   4.12203627828104E-07   1.71069227632446E-13   0.00000000000000E+00   0.00000000000000E+00
      0.00000000000000E+00  -6.94147416817112E-11   5.17769081306307E-15   2.85626764948026E-07   2.85557355384036E-07
     -4.70207325158673E-14  -1.70000000000000E+01  -1.70000000000000E+01   0.00000000000000E+00  -2.77962627294474E-07
     -5.02066850072742E-15  -4.19798350896995E-07  -6.97760983212138E-07  -1.24048495116579E-13
      4.11045987129211E-10
      8.00000000000000E-01   8.00000000000000E-01   0.00000000000000E+00   2.59156673994674E-11   4.44118765863765E-07
      2.07567097632833E-17   4.44144681551921E-07   1.71074865241644E-13   0.00000000000000E+00   0.00000000000000E+00
      0.00000000000000E+00  -6.15175467866574E-11   8.08730876607689E-15   2.34854793498745E-07   2.34793284039267E-07
     -4.70153496711619E-14  -1.70000000000000E+01  -1.70000000000000E+01   0.00000000000000E+00  -2.58937373482439E-07
     -5.02099622083022E-15  -4.20000587087751E-07  -6.78937965591186E-07  -1.24059515570482E-13
      4.72624815464020E-10
      8.00000000000000E-01   8.00000000000000E-01   0.00000000000000E+00   1.71711777646656E-11   4.79796734415551E-07
      2.07567846360371E-17   4.79813905614072E-07   1.71085915145108E-13   0.00000000000000E+00   0.00000000000000E+00
      0.00000000000000E+00  -4.98812519632000E-11   1.39063680165665E-14   1.70110078286346E-07   1.70060210940750E-07
     -4.70113337431541E-14  -1.70000000000000E+01  -1.70000000000000E+01   0.00000000000000E+00  -2.30364757277019E-07
     -5.02144421289949E-15  -4.19509354256360E-07  -6.49874116554823E-07  -1.24074581401954E-13
      5.18808936715126E-10
      8.00000000000000E-01   8.00000000000000E-01   0.00000000000000E+00   1.13636533279443E-11   4.97516545422355E-07
      2.07568229200410E-17   4.97527909096440E-07   1.71095719449580E-13   0.00000000000000E+00   0.00000000000000E+00
      0.00000000000000E+00  -4.21065848941031E-11   1.93921509388762E-14   1.30017178713948E-07   1.29975091521205E-07
     -4.70109967171083E-14  -1.70000000000000E+01  -1.70000000000000E+01   0.00000000000000E+00  -2.08793172217319E-07
     -5.02174570274371E-15  -4.18709823378581E-07  -6.27503000617646E-07  -1.24084722732471E-13
      5.88085118591785E-10
      8.00000000000000E-01   8.00000000000000E-01   0.00000000000000E+00   4.43512256015926E-12   5.12136557085179E-07
      2.07568872294871E-17   5.12140992228496E-07   1.71111905298735E-13   0.00000000000000E+00   0.00000000000000E+00
      0.00000000000000E+00  -3.26669374607376E-11   2.92766305273219E-14   8.12528675809882E-08   8.12202299201579E-08
     -4.70138445575879E-14  -1.70000000000000E+01  -1.70000000000000E+01   0.00000000000000E+00  -1.76268604891180E-07
     -5.02214207710477E-15  -4.17092612235332E-07  -5.93361222148654E-07  -1.24098060741147E-13
      6.91999391406774E-10
      8.00000000000000E-01   8.00000000000000E-01   0.00000000000000E+00  -2.32178916849290E-12   5.14791753125748E-07
      2.07570035496748E-17   5.14789431357337E-07   1.71137660367884E-13   0.00000000000000E+00   0.00000000000000E+00
      0.00000000000000E+00  -2.28440070164183E-11   4.72369965758961E-14   2.72311547008278E-08   2.72083579308080E-08
     -4.70238030098402E-14  -1.70000000000000E+01  -1.70000000000000E+01   0.00000000000000E+00  -1.27861410217184E-07
     -5.02261121240993E-15  -4.14136374048350E-07  -5.41997789288145E-07  -1.24113857358043E-13
      7.69935096018016E-10
      8.00000000000000E-01   8.00000000000000E-01   0.00000000000000E+00  -5.43730253044979E-12   5.06672920422279E-07
      2.07569728414238E-17   5.06667483140506E-07   1.71157054558038E-13   0.00000000000000E+00   0.00000000000000E+00
      0.00000000000000E+00  -1.75934754252822E-11   6.25868241724354E-14  -2.29361236289488E-09  -2.31114325149599E-09
     -4.70346090966451E-14  -1.70000000000000E+01  -1.70000000000000E+01   0.00000000000000E+00  -9.26529545980380E-08
     -5.02286606910972E-15  -4.11703380268107E-07  -5.04356339889011E-07  -1.24122445461393E-13
      8.86838652934879E-10
      8.00000000000000E-01   8.00000000000000E-01   0.00000000000000E+00  -8.92166669260625E-12   4.84143555259269E-07
      2.07568832122096E-17   4.84134633613334E-07   1.71184811648240E-13   0.00000000000000E+00   0.00000000000000E+00
      0.00000000000000E+00  -1.04518539434233E-11   8.71721497960847E-14  -3.28520677287135E-08  -3.28624324105071E-08
     -4.70544423267072E-14  -1.70000000000000E+01  -1.70000000000000E+01   0.00000000000000E+00  -4.33550294857018E-08
     -5.02310099857788E-15  -4.07917166694024E-07  -4.51272201202827E-07  -1.24130369321533E-13
      9.74516320622526E-10
      8.00000000000000E-01   8.00000000000000E-01   0.00000000000000E+00  -1.13284298525571E-11   4.60304587206351E-07
      2.07567502014271E-17   4.60293258797256E-07   1.71203912037203E-13   0.00000000000000E+00   0.00000000000000E+00
      0.00000000000000E+00  -4.78854720254001E-12   1.05772291856531E-13  -4.51058695160628E-08  -4.51105522909735E-08
     -4.70712107707671E-14  -1.70000000000000E+01  -1.70000000000000E+01   0.00000000000000E+00  -1.01611519123205E-08
     -5.02316998267551E-15  -4.05021549570791E-07  -4.15182706506282E-07  -1.24132701266435E-13
      1.10603282215400E-09
      8.00000000000000E-01   8.00000000000000E-01   0.00000000000000E+00  -1.47852652329833E-11   4.13967338215087E-07
      2.07565811495763E-17   4.13952552970610E-07   1.71228565166873E-13   0.00000000000000E+00   0.00000000000000E+00
      0.00000000000000E+00   3.96551325774152E-12   1.31684313753401E-13  -4.54921029471753E-08  -4.54880057496038E-08
     -4.70973619684462E-14  -1.70000000000000E+01  -1.70000000000000E+01   0.00000000000000E+00   3.21328210013553E-08
     -5.02312524543744E-15  -4.00597363199235E-07  -3.68464547221005E-07  -1.24131203198427E-13
      1.20467019830260E-09
      8.00000000000000E-01   8.00000000000000E-01   0.00000000000000E+00  -1.68108046815014E-11   3.71805809328522E-07
      2.07565108047049E-17   3.71788998544597E-07   1.71243165392228E-13   0.00000000000000E+00   0.00000000000000E+00
      0.00000000000000E+00   9.72944629333288E-12   1.48265164609242E-13  -3.22787794167753E-08  -3.22689017053173E-08
     -4.71164123445114E-14  -1.70000000000000E+01  -1.70000000000000E+01   0.00000000000000E+00   5.76473724767537E-08
     -5.02299304225583E-15  -3.97167464293040E-07  -3.39520096839279E-07  -1.24126753047716E-13
      1.35262626252550E-09
      8.00000000000000E-01   8.00000000000000E-01   0.00000000000000E+00  -1.80023303688178E-11   3.01739773015591E-07
      2.07562129920797E-17   3.01721770705978E-07   1.71257671347418E-13   0.00000000000000E+00   0.00000000000000E+00
      0.00000000000000E+00   1.51306259566570E-11   1.66652989339406E-13   3.30042614334345E-09   3.31572342228944E-09
     -4.71416551987562E-14  -1.70000000000000E+01  -1.70000000000000E+01   0.00000000000000E+00   8.66004031572623E-08
     -5.02267432076599E-15  -3.91637892262856E-07  -3.05037494128268E-07  -1.24116016148662E-13
      1.46359331069268E-09
      8.00000000000000E-01   8.00000000000000E-01   0.00000000000000E+00  -1.72670857350380E-11   2.48605287959799E-07
      2.07559515425533E-17   2.48588020894819E-07   1.71262471566266E-13   0.00000000000000E+00   0.00000000000000E+00
      0.00000000000000E+00   1.61951449488500E-11   1.74764602053105E-13   3.64065435413705E-08   3.64229134509214E-08
     -4.71569407481646E-14  -1.70000000000000E+01  -1.70000000000000E+01   0.00000000000000E+00   1.01973050338050E-07
     -5.02236317337921E-15  -3.86983979661428E-07  -2.85010934345741E-07  -1.24105530818101E-13
      1.63004388294345E-09
      8.00000000000000E-01   8.00000000000000E-01   0.00000000000000E+00  -1.42538810522545E-11   1.77241921845303E-07
      2.07558566427528E-17   1.77227667985007E-07   1.71260637936692E-13   0.00000000000000E+00   0.00000000000000E+00
      0.00000000000000E+00   1.40501225137931E-11   1.77966001151158E-13   8.43011805967822E-08   8.43154086852971E-08
     -4.71733998518236E-14  -1.70000000000000E+01  -1.70000000000000E+01   0.00000000000000E+00   1.17111508984635E-07
     -5.02182050191190E-15  -3.78654580633118E-07  -2.61543076670304E-07  -1.24087238084869E-13
      1.75488181213153E-09
      8.00000000000000E-01   8.00000000000000E-01   0.00000000000000E+00  -1.13210926508656E-11   1.33958237519791E-07
      2.07556623442273E-17   1.33946916447895E-07   1.71253357081531E-13   0.00000000000000E+00   0.00000000000000E+00
      0.00000000000000E+00   1.08811378300935E-11   1.74146475908267E-13   1.13602710434265E-07   1.13613765718571E-07
     -4.71811526761783E-14  -1.70000000000000E+01  -1.70000000000000E+01   0.00000000000000E+00   1.23416799252251E-07
     -5.02137467031838E-15  -3.70977476397342E-07  -2.47560682166466E-07  -1.24072204405352E-13
      1.94213870591364E-09
      8.00000000000000E-01   8.00000000000000E-01   0.00000000000000E+00  -7.28152114440929E-12   8.69312946862054E-08
      2.07554674259612E-17   8.69240131858165E-08   1.71236201794880E-13   0.00000000000000E+00   0.00000000000000E+00
      0.00000000000000E+00   6.10920455238920E-12   1.61045702444768E-13   1.43276280547523E-07   1.43282550797778E-07
     -4.71874409299671E-14  -1.70000000000000E+01  -1.70000000000000E+01   0.00000000000000E+00   1.26355433363788E-07
     -5.02067981981558E-15  -3.56561992326703E-07  -2.30206563983594E-07  -1.24048760864913E-13
      2.08258137625022E-09
      8.00000000000000E-01   8.00000000000000E-01   0.00000000000000E+00  -5.00064158981095E-12   6.36401225053381E-08
      2.07553791932844E-17   6.36351218845036E-08   1.71220549355925E-13   0.00000000000000E+00   0.00000000000000E+00
      0.00000000000000E+00   3.38139229585266E-12   1.47324731264315E-13   1.55609468613021E-07   1.55612997330048E-07
     -4.71893949346639E-14  -1.70000000000000E+01  -1.70000000000000E+01   0.00000000000000E+00   1.24071762838415E-07
     -5.02015835328393E-15  -3.43319877032808E-07  -2.19248119214551E-07  -1.24031154421261E-13
      2.29324538175510E-09
      8.00000000000000E-01   8.00000000000000E-01   0.00000000000000E+00  -2.81916147008648E-12   4.15767170637121E-08
      2.07552450189812E-17   4.15738979229973E-08   1.71196199276722E-13   0.00000000000000E+00   0.00000000000000E+00
      0.00000000000000E+00   9.32497114982810E-13   1.24108104292494E-13   1.63720190635785E-07   1.63721247241005E-07
     -4.71902509359523E-14  -1.70000000000000E+01  -1.70000000000000E+01   0.00000000000000E+00   1.14688633877610E-07
     -5.01941250853200E-15  -3.19983774022200E-07  -2.05295145164002E-07  -1.24005948340770E-13
      2.45124338588376E-09
      8.00000000000000E-01   8.00000000000000E-01   0.00000000000000E+00  -1.90244936735194E-12   3.15078542349201E-08
      2.07553574282418E-17   3.15059518063081E-08   1.71178879601013E-13   0.00000000000000E+00   0.00000000000000E+00
      0.00000000000000E+00   7.92313433901093E-14   1.06469815369562E-13   1.65053827846216E-07   1.65054013547375E-07
     -4.71902216964493E-14  -1.70000000000000E+01  -1.70000000000000E+01   0.00000000000000E+00   1.03970033353754E-07
     -5.01890146009611E-15  -3.00529993688536E-07  -1.96559965353683E-07  -1.23988657904564E-13
      2.56974188898025E-09
      8.00000000000000E-01   8.00000000000000E-01   0.00000000000000E+00  -1.45777153104247E-12   2.61101905511455E-08
      2.07552615389994E-17   2.61087328003697E-08   1.71167035808420E-13   0.00000000000000E+00   0.00000000000000E+00
      0.00000000000000E+00  -2.31313988512610E-13   9.38835069013118E-14   1.64799194935028E-07   1.64799057504547E-07
     -4.71901439716748E-14  -1.70000000000000E+01  -1.70000000000000E+01   0.00000000000000E+00   9.45423012841251E-08
     -5.01855400885590E-15  -2.85450086570487E-07  -1.90907790304916E-07  -1.23976891836745E-13
      2.74748964362499E-09
      8.00000000000000E-01   8.00000000000000E-01   0.00000000000000E+00  -1.01439889418823E-12   2.01716014848720E-08
      2.07552741344585E-17   2.01705871067331E-08   1.71151577871191E-13   0.00000000000000E+00   0.00000000000000E+00
      0.00000000000000E+00  -4.04862173360224E-13   7.67165986502746E-14   1.63614736875352E-07   1.63614408729777E-07
     -4.71901426666339E-14  -1.70000000000000E+01  -1.70000000000000E+01   0.00000000000000E+00   7.93206278244882E-08
     -5.01809801629290E-15  -2.63105618642901E-07  -1.83784995836511E-07  -1.23961435204557E-13
      2.88080045960855E-09
      8.00000000000000E-01   8.00000000000000E-01   0.00000000000000E+00  -7.94400027271703E-13   1.68989144983854E-08
      2.07552277524165E-17   1.68981201191134E-08   1.71141913042609E-13   0.00000000000000E+00   0.00000000000000E+00
      0.00000000000000E+00  -4.03394093283723E-13   6.54153000002349E-14   1.62540204436330E-07   1.62539866457537E-07
     -4.71902806931503E-14  -1.70000000000000E+01  -1.70000000000000E+01   0.00000000000000E+00   6.77719350608538E-08
     -5.01780912403222E-15  -2.47209916619695E-07  -1.79437986576650E-07  -1.23951632349458E-13
      3.08076668358388E-09
      8.00000000000000E-01   8.00000000000000E-01   0.00000000000000E+00  -5.66409254223445E-13   1.32140259024611E-08
      2.07551941140713E-17   1.32134595139621E-08   1.71130440135912E-13   0.00000000000000E+00   0.00000000000000E+00
      0.00000000000000E+00  -3.16614884645738E-13   5.11152870657748E-14   1.61112032132622E-07   1.61111766633024E-07
     -4.71907158612065E-14  -1.70000000000000E+01  -1.70000000000000E+01   0.00000000000000E+00   5.14858997319773E-08
     -5.01745856394444E-15  -2.25811120861505E-07  -1.74325226146986E-07  -1.23939724274705E-13
      3.38071601954688E-09
      8.00000000000000E-01   8.00000000000000E-01   0.00000000000000E+00  -3.56096106105057E-13   9.48101804183504E-09
      2.07552110939835E-17   9.48066196648415E-09   1.71119126309512E-13   0.00000000000000E+00   0.00000000000000E+00
      0.00000000000000E+00  -1.45051920821481E-13   3.51546561508443E-14   1.59747814168247E-07   1.59747704270982E-07
     -4.71917463373199E-14  -1.70000000000000E+01  -1.70000000000000E+01   0.00000000000000E+00   3.13377579063552E-08
     -5.01709571014340E-15  -2.00566119126726E-07  -1.69228366237467E-07  -1.23927379972193E-13
      3.83064002349138E-09
      8.00000000000000E-01   8.00000000000000E-01   0.00000000000000E+00  -1.89578920149004E-13   6.19133872685825E-09
      2.07551768296466E-17   6.19114916869328E-09   1.71111467976919E-13   0.00000000000000E+00   0.00000000000000E+00
      0.00000000000000E+00   2.96461076683713E-14   2.07467364111727E-14   1.59259826834529E-07   1.59259877227373E-07
     -4.71936420706215E-14  -1.70000000000000E+01  -1.70000000000000E+01   0.00000000000000E+00   1.22033007887478E-08
     -5.01681546079334E-15  -1.77654322167999E-07  -1.65451026396067E-07  -1.23917825906298E-13
      4.50552602940813E-09
      8.00000000000000E-01   8.00000000000000E-01   0.00000000000000E+00  -8.44685768699048E-14   3.73884287235891E-09
      2.07552239772671E-17   3.73875842453726E-09   1.71109937527223E-13   0.00000000000000E+00   0.00000000000000E+00
      0.00000000000000E+00   9.64282677854940E-14   1.15518014444162E-14   1.60125481608787E-07   1.60125589588856E-07
     -4.71962615250881E-14  -1.70000000000000E+01  -1.70000000000000E+01   0.00000000000000E+00   1.30869626631066E-09
     -5.01669412457046E-15  -1.65173039263010E-07  -1.63864348013393E-07  -1.23913676002134E-13
      5.01169053384569E-09
      8.00000000000000E-01   8.00000000000000E-01   0.00000000000000E+00  -5.27584706540047E-14   2.79797794670858E-09
      2.07551824137870E-17   2.79792520899310E-09   1.71111200701948E-13   0.00000000000000E+00   0.00000000000000E+00
      0.00000000000000E+00   7.66564206200651E-14   9.23298697807019E-15   1.60951320196425E-07   1.60951406085833E-07
     -4.71977609832329E-14  -1.70000000000000E+01  -1.70000000000000E+01   0.00000000000000E+00  -1.82648565477097E-10
     -5.01668733822442E-15  -1.63566677712661E-07  -1.63749331294826E-07  -1.23913439718715E-13
      5.77093729050203E-09
      8.00000000000000E-01   8.00000000000000E-01   0.00000000000000E+00  -2.93399268704701E-14   1.95726206945180E-09
      2.07552461965526E-17   1.95723275028018E-09   1.71112977996601E-13   0.00000000000000E+00   0.00000000000000E+00
      0.00000000000000E+00   4.25659104569852E-14   7.87661479793562E-15   1.61791565636464E-07   1.61791616078989E-07
     -4.71993652079832E-14  -1.70000000000000E+01  -1.70000000000000E+01   0.00000000000000E+00  -2.14478090652600E-10
     -5.01669248259407E-15  -1.63534365721924E-07  -1.63748848829269E-07  -1.23913612788617E-13
      6.90980742548655E-09
      8.00000000000000E-01   8.00000000000000E-01   0.00000000000000E+00  -1.42449680791532E-14   1.29155673075329E-09
      2.07551782583808E-17   1.29154250654039E-09   1.71114625845377E-13   0.00000000000000E+00   0.00000000000000E+00
      0.00000000000000E+00   1.67917773982497E-14   6.98966330449436E-15   1.62400011266209E-07   1.62400035047650E-07
     -4.72009335220498E-14  -1.70000000000000E+01  -1.70000000000000E+01   0.00000000000000E+00   4.21028702593709E-11
     -5.01669482150382E-15  -1.63733675407755E-07  -1.63691577554190E-07  -1.23913692323327E-13
      7.76396002672493E-09
      8.00000000000000E-01   8.00000000000000E-01   0.00000000000000E+00  -9.14819381304347E-15   1.01922213910257E-09
      2.07551444993893E-17   1.01921301166390E-09   1.71115410720314E-13   0.00000000000000E+00   0.00000000000000E+00
      0.00000000000000E+00   1.03676367734957E-14   6.47151978875553E-15   1.62612065155987E-07   1.62612081995143E-07
     -4.72017594934550E-14  -1.70000000000000E+01  -1.70000000000000E+01   0.00000000000000E+00   4.89281379973119E-11
     -5.01669359988157E-15  -1.63680218128110E-07  -1.63631295006806E-07  -1.23913651226858E-13
      9.04518892858251E-09
      8.00000000000000E-01   8.00000000000000E-01   0.00000000000000E+00  -5.25290534329049E-15   7.69513848510306E-10
      2.07551579540348E-17   7.69508616360121E-10   1.71116323447013E-13   0.00000000000000E+00   0.00000000000000E+00
      0.00000000000000E+00   5.70066279491266E-15   5.75382061818545E-15   1.62797582476302E-07   1.62797593930785E-07
     -4.72027176972761E-14  -1.70000000000000E+01  -1.70000000000000E+01   0.00000000000000E+00   2.40168493826656E-11
     -5.01669223913997E-15  -1.63591114379836E-07  -1.63567102547145E-07  -1.23913605749737E-13
      1.09670322813689E-08
      8.00000000000000E-01   8.00000000000000E-01   0.00000000000000E+00  -2.88227926723359E-15   5.58970088969167E-10
      2.07551329376616E-17   5.58967227445032E-10   1.71117351941051E-13   0.00000000000000E+00   0.00000000000000E+00
      0.00000000000000E+00   2.73809954961317E-15   4.83377676388327E-15   1.62945097976489E-07   1.62945105548365E-07
     -4.72037825897539E-14  -1.70000000000000E+01  -1.70000000000000E+01   0.00000000000000E+00   1.50082123223800E-11
     -5.01669113188745E-15  -1.63519075971441E-07  -1.63504072775810E-07  -1.23913569351297E-13
      1.38497973105484E-08
      8.00000000000000E-01   8.00000000000000E-01   0.00000000000000E+00  -1.62772797632453E-15   3.83375088274668E-10
      2.07551402146452E-17   3.83373481301832E-10   1.71118443957668E-13   0.00000000000000E+00   0.00000000000000E+00
      0.00000000000000E+00   1.40410918382735E-15   3.76659667235247E-15   1.63056147049173E-07   1.63056152219879E-07
     -4.72049111420837E-14  -1.70000000000000E+01  -1.70000000000000E+01   0.00000000000000E+00   1.04008325709747E-11
     -5.01669001009926E-15  -1.63449921517061E-07  -1.63439525701181E-07  -1.23913532815584E-13
      1.81739448543178E-08
      8.00000000000000E-01   8.00000000000000E-01   0.00000000000000E+00  -8.86036433093682E-16   2.36367248651419E-10
      2.07551685223215E-17   2.36366383370154E-10   1.71119514135058E-13   0.00000000000000E+00   0.00000000000000E+00