DF-ISE text

Info {
  version   = 1.0
  type      = xyplot
  datasets  = [
    "time"
    "Ntop OuterVoltage" "Ntop InnerVoltage" "Ntop QuasiFermiPotential" "Ntop DisplacementCurrent" "Ntop eCurrent"
    "Ntop hCurrent" "Ntop TotalCurrent" "Ntop Charge" "Ptop OuterVoltage" "Ptop InnerVoltage"
    "Ptop QuasiFermiPotential" "Ptop DisplacementCurrent" "Ptop eCurrent" "Ptop hCurrent" "Ptop TotalCurrent"
    "Ptop Charge" "Pbot OuterVoltage" "Pbot InnerVoltage" "Pbot QuasiFermiPotential" "Pbot DisplacementCurrent"
    "Pbot eCurrent" "Pbot hCurrent" "Pbot TotalCurrent" "Pbot Charge" ]
  functions = [
    Time
    OuterVoltage InnerVoltage QuasiFermiPotential DisplacementCurrent eCurrent
    hCurrent TotalCurrent Charge OuterVoltage InnerVoltage
    QuasiFermiPotential DisplacementCurrent eCurrent hCurrent TotalCurrent
    Charge OuterVoltage InnerVoltage QuasiFermiPotential DisplacementCurrent
    eCurrent hCurrent TotalCurrent Charge ]
}

Data {
      5.00000000000000E-13
      8.00000000000000E-01   8.00000000000000E-01   0.00000000000000E+00   6.79771009920085E-15   6.99062480470232E-12
     -6.61848749392493E-12   3.78935020876596E-13   1.67014632698001E-13   0.00000000000000E+00   0.00000000000000E+00
      0.00000000000000E+00  -1.15214774932785E-13  -1.97161987554659E-16   6.32891199726992E-11   6.31737080357788E-11
     -7.08437734486209E-14  -1.20000000000000E+01  -1.20000000000000E+01   0.00000000000000E+00  -2.45251021016807E-13
      1.32005545330732E-11  -7.65079465687118E-11  -6.35526430566553E-11  -9.61708592493796E-14
      1.25000000000000E-12
      8.00000000000000E-01   8.00000000000000E-01   0.00000000000000E+00   7.88186961953948E-14   3.18906900744321E-11
     -3.05397410269023E-11   1.42976774372521E-12   1.67014632698331E-13   0.00000000000000E+00   0.00000000000000E+00
      0.00000000000000E+00  -8.98102579856523E-14  -1.97161987553460E-16   6.38839514711186E-11   6.37939440511454E-11
     -7.08437734483203E-14  -1.20000000000000E+01  -1.20000000000000E+01   0.00000000000000E+00  -1.50186059243111E-12
      6.09129591273034E-11  -1.24634810329743E-10  -6.52237117948705E-11  -9.61708592500105E-14
      2.37500000000000E-12
      8.00000000000000E-01   8.00000000000000E-01   0.00000000000000E+00   5.83928332865396E-13   2.65991954675243E-10
     -2.52688882760388E-10   1.38870002477196E-11   1.67014632703142E-13   0.00000000000000E+00   0.00000000000000E+00
      0.00000000000000E+00   5.81480348933154E-13  -1.97161987540085E-16   7.05135000505910E-11   7.10947832375367E-11
     -7.08437734437465E-14  -1.20000000000000E+01  -1.20000000000000E+01   0.00000000000000E+00  -1.63566717999904E-11
      5.03867961755689E-10  -5.72493073440955E-10  -8.49817834852564E-11  -9.61708592593943E-14
      4.06250000000000E-12
      8.00000000000000E-01   8.00000000000000E-01   0.00000000000000E+00   8.79701983397747E-12   4.11213745044376E-09
     -3.83334894347931E-09   2.87585526798435E-10   1.67014632845151E-13   0.00000000000000E+00   0.00000000000000E+00
      0.00000000000000E+00   7.90217705542209E-12  -1.97161987223692E-16   2.27200757739040E-10   2.35102737632475E-10
     -7.08437733046292E-14  -1.20000000000000E+01  -1.20000000000000E+01   0.00000000000000E+00  -3.45608095065447E-10
      7.63978236382230E-09  -7.81686253318777E-09  -5.22688264430910E-10  -9.61708595405216E-14
      6.59375000000000E-12
      8.00000000000000E-01   8.00000000000000E-01   0.00000000000000E+00   1.75117542135645E-10   8.49250030826769E-08
     -7.67145220252590E-08   8.38559859955349E-09   1.67014638919421E-13   0.00000000000000E+00   0.00000000000000E+00
      0.00000000000000E+00   1.60168375450457E-10  -1.97161977499214E-16   5.03703311559318E-09   5.19720129388166E-09
     -7.08437671741573E-14  -1.20000000000000E+01  -1.20000000000000E+01   0.00000000000000E+00  -1.01758612338975E-08
      1.52755481172974E-07  -1.56162419832512E-07  -1.35827998934351E-08  -9.61708717452625E-14
      1.03906250000000E-11
      8.00000000000000E-01   8.00000000000000E-01   0.00000000000000E+00   1.46487567083502E-09   7.50449828876816E-07
     -6.38512846669882E-07   1.13401857877769E-07   1.67014768522677E-13   0.00000000000000E+00   0.00000000000000E+00
      0.00000000000000E+00   1.32515639895373E-09  -1.97161848994881E-16   6.85037803391199E-08   6.98289365409118E-08
     -7.08436348726658E-14  -1.20000000000000E+01  -1.20000000000000E+01   0.00000000000000E+00  -1.37918208620226E-07
      1.26924293218370E-06  -1.31455551798215E-06  -1.83230794418681E-07  -9.61711336500110E-14
      1.60859375000000E-11
      8.00000000000000E-01   8.00000000000000E-01   0.00000000000000E+00   8.59646140651374E-10   6.20632259414032E-07
     -3.41682067842131E-07   2.79809837712552E-07   1.67015455281098E-13   0.00000000000000E+00   0.00000000000000E+00
      0.00000000000000E+00   5.94141628771243E-10  -1.97161656526687E-16   1.63102307921666E-07   1.63696449353276E-07
     -7.08429560797505E-14  -1.20000000000000E+01  -1.20000000000000E+01   0.00000000000000E+00  -3.33491928321446E-07
      6.68803776507154E-07  -7.78818135251537E-07  -4.43506287065828E-07  -9.61724992013464E-14
      2.46289062500000E-11
      8.00000000000000E-01   8.00000000000000E-01   0.00000000000000E+00   1.19865446536635E-10   3.75963896020584E-07
     -8.53458453213941E-09   3.67549176934981E-07   1.67017183084934E-13   0.00000000000000E+00   0.00000000000000E+00
      0.00000000000000E+00  -1.38272540551009E-10  -1.97161611697339E-16   1.84455867153878E-07   1.84317594416166E-07
     -7.08414400518361E-14  -1.20000000000000E+01  -1.20000000000000E+01   0.00000000000000E+00  -4.12159497034673E-07
      1.23928307004726E-09  -1.40946557386524E-07  -5.51866771351149E-07  -9.61757430330981E-14
      3.74433593750000E-11
      8.00000000000000E-01   8.00000000000000E-01   0.00000000000000E+00   8.83116530240539E-11   4.06110116743953E-07
     -7.19489170110949E-09   3.99003536695868E-07   1.67020273269030E-13   0.00000000000000E+00   0.00000000000000E+00
      0.00000000000000E+00  -1.07320953119668E-10  -1.97161669166512E-16   1.55191094289513E-07   1.55083773139232E-07
     -7.08392727485727E-14  -1.20000000000000E+01  -1.20000000000000E+01   0.00000000000000E+00  -4.08169620489706E-07
     -4.04918844783030E-15  -1.45917685296206E-07  -5.54087309835100E-07  -9.61810005204568E-14
      5.66650390625000E-11
      8.00000000000000E-01   8.00000000000000E-01   0.00000000000000E+00   6.23365231275097E-11   4.38603950533946E-07
     -6.23031342909558E-09   4.32435973627978E-07   1.67025399444202E-13   0.00000000000000E+00   0.00000000000000E+00
      0.00000000000000E+00  -8.11743482273238E-11  -1.97161736492247E-16   1.20968199911416E-07   1.20887025366027E-07
     -7.08366348553117E-14  -1.20000000000000E+01  -1.20000000000000E+01   0.00000000000000E+00  -3.99572217868572E-07
     -4.09087073605224E-15  -1.53750777034561E-07  -5.53322998994004E-07  -9.61887645888898E-14
      8.54975585937500E-11
      8.00000000000000E-01   8.00000000000000E-01   0.00000000000000E+00   3.81275595832073E-11   4.69860375163752E-07
     -5.01900519577682E-09   4.64879497527558E-07   1.67033792179449E-13   0.00000000000000E+00   0.00000000000000E+00
      0.00000000000000E+00  -5.62736092995255E-11  -1.97161810225818E-16   8.37066514193719E-08   8.36503776129106E-08
     -7.08337123903602E-14  -1.20000000000000E+01  -1.20000000000000E+01   0.00000000000000E+00  -3.85246032106747E-07
     -4.11907955822644E-15  -1.63283838914641E-07  -5.48529875140467E-07  -9.62000797890878E-14
      1.28746337890625E-10
      8.00000000000000E-01   8.00000000000000E-01   0.00000000000000E+00   1.79867007329023E-11   4.94352548664771E-07
     -3.62732915536991E-09   4.90743206210134E-07   1.67047204325927E-13   0.00000000000000E+00   0.00000000000000E+00
      0.00000000000000E+00  -3.51113025315448E-11  -1.97161884880793E-16   4.66428814463944E-08   4.66077699467009E-08
     -7.08309391762457E-14  -1.20000000000000E+01  -1.20000000000000E+01   0.00000000000000E+00  -3.63272917692369E-07
     -4.13496462624617E-15  -1.74078054329503E-07  -5.37350976156836E-07  -9.62162651496803E-14
      1.93619506835937E-10
      8.00000000000000E-01   8.00000000000000E-01   0.00000000000000E+00   3.76769821713129E-12   5.05913614472099E-07
     -2.22703401846843E-09   5.03690348151848E-07   1.67067871357598E-13   0.00000000000000E+00   0.00000000000000E+00
      0.00000000000000E+00  -2.00214926307007E-11  -1.97161954999910E-16   1.33186596318018E-08   1.32986379420092E-08
     -7.08290578830220E-14  -1.20000000000000E+01  -1.20000000000000E+01   0.00000000000000E+00  -3.32129427028808E-07
     -4.14169115543379E-15  -1.84859554923360E-07  -5.16988986093859E-07  -9.62388134745753E-14
      2.42274383544922E-10
      8.00000000000000E-01   8.00000000000000E-01   0.00000000000000E+00  -8.15842165071257E-13   5.05096278949394E-07
     -1.55147515752120E-09   5.03543987949707E-07   1.67083269453622E-13   0.00000000000000E+00   0.00000000000000E+00
      0.00000000000000E+00  -1.52174943286821E-11  -1.97161991402021E-16  -2.88011217670224E-09  -2.89532986819292E-09
     -7.08288205530899E-14  -1.20000000000000E+01  -1.20000000000000E+01   0.00000000000000E+00  -3.10715853264677E-07
     -4.14307573904561E-15  -1.89932800673762E-07  -5.00648658081515E-07  -9.62544489005314E-14
      3.15256698608398E-10
      8.00000000000000E-01   8.00000000000000E-01   0.00000000000000E+00  -3.73867569492494E-12   4.98443518116162E-07
     -9.04442648152429E-10   4.97535336792315E-07   1.67105784308544E-13   0.00000000000000E+00   0.00000000000000E+00
      0.00000000000000E+00  -1.22714180070253E-11  -1.97162036648016E-16  -2.18159061726337E-08  -2.18281777878028E-08
     -7.08297411307704E-14  -1.20000000000000E+01  -1.20000000000000E+01   0.00000000000000E+00  -2.81293250232534E-07
     -4.14410385275752E-15  -1.94413904627875E-07  -4.75707159004513E-07  -9.62760431777732E-14
      3.69993434906006E-10
      8.00000000000000E-01   8.00000000000000E-01   0.00000000000000E+00  -4.45431299850754E-12   4.91820894203382E-07
     -6.09156618024811E-10   4.91207283272359E-07   1.67122159470792E-13   0.00000000000000E+00   0.00000000000000E+00
      0.00000000000000E+00  -1.15848383542438E-11  -1.97162067744355E-16  -3.42346179705818E-08  -3.42462030060981E-08
     -7.08312800440611E-14  -1.20000000000000E+01  -1.20000000000000E+01   0.00000000000000E+00  -2.60902156726053E-07
     -4.14463877450710E-15  -1.96058919395569E-07  -4.56961080266260E-07  -9.62908794267322E-14
      4.52098539352417E-10
      8.00000000000000E-01   8.00000000000000E-01   0.00000000000000E+00  -4.83238071670686E-12   4.81400548134024E-07
     -3.40242258410198E-10   4.81055473494897E-07   1.67145940476563E-13   0.00000000000000E+00   0.00000000000000E+00
      0.00000000000000E+00  -1.11653964921313E-11  -1.97162113333840E-16  -5.20126748941492E-08  -5.20238404878034E-08
     -7.08348247541069E-14  -1.20000000000000E+01  -1.20000000000000E+01   0.00000000000000E+00  -2.32193751728753E-07
     -4.14533769593998E-15  -1.96837877133002E-07  -4.29031633007093E-07  -9.63111157224563E-14
      5.13677367687225E-10
      8.00000000000000E-01   8.00000000000000E-01   0.00000000000000E+00  -5.05660365440261E-12   4.73417777546420E-07
     -2.24280828650659E-10   4.73188440114115E-07   1.67163206640900E-13   0.00000000000000E+00   0.00000000000000E+00
      0.00000000000000E+00  -1.08007582902862E-11  -1.97162146852324E-16  -6.48920440717790E-08  -6.49028450272314E-08
     -7.08384242356562E-14  -1.20000000000000E+01  -1.20000000000000E+01   0.00000000000000E+00  -2.11744463667839E-07
     -4.14580512893426E-15  -1.96541127273241E-07  -4.08285595086885E-07  -9.63247824052440E-14
      5.59861488938332E-10
      8.00000000000000E-01   8.00000000000000E-01   0.00000000000000E+00  -5.34482807080412E-12   4.67203247866464E-07
     -1.66249499690593E-10   4.67031653538702E-07   1.67175851082548E-13   0.00000000000000E+00   0.00000000000000E+00
      0.00000000000000E+00  -1.03370386338440E-11  -1.97162171229602E-16  -7.41762111154111E-08  -7.41865483512071E-08
     -7.08416341870637E-14  -1.20000000000000E+01  -1.20000000000000E+01   0.00000000000000E+00  -1.96842222513074E-07
     -4.14612764191622E-15  -1.96002878528293E-07  -3.92845105187495E-07  -9.63342168954837E-14
      6.29137670814991E-10
      8.00000000000000E-01   8.00000000000000E-01   0.00000000000000E+00  -6.07663780755193E-12   4.57050322053325E-07
     -1.08341397847162E-10   4.56935904017671E-07   1.67194313300397E-13   0.00000000000000E+00   0.00000000000000E+00
      0.00000000000000E+00  -9.21408711750891E-12  -1.97162205472485E-16  -8.70568879319368E-08  -8.70661022162165E-08
     -7.08472179154468E-14  -1.20000000000000E+01  -1.20000000000000E+01   0.00000000000000E+00  -1.75005175008594E-07
     -4.14656785966905E-15  -1.94864622646292E-07  -3.69869801801454E-07  -9.63470953849507E-14
      7.33051943629980E-10
      8.00000000000000E-01   8.00000000000000E-01   0.00000000000000E+00  -7.92180096908228E-12   4.38481447017633E-07
     -6.04532509609686E-11   4.38413071965703E-07   1.67220702466521E-13   0.00000000000000E+00   0.00000000000000E+00
      0.00000000000000E+00  -6.46135002572923E-12  -1.97162248149568E-16  -1.02574339633745E-07  -1.02580801180933E-07
     -7.08570819604452E-14  -1.20000000000000E+01  -1.20000000000000E+01   0.00000000000000E+00  -1.43126060766572E-07
     -4.14713273761427E-15  -1.92706205871067E-07  -3.35832270784771E-07  -9.63636205060757E-14
      8.10987648241222E-10
      8.00000000000000E-01   8.00000000000000E-01   0.00000000000000E+00  -9.82244530137941E-12   4.20766501928987E-07
     -4.17549012529667E-11   4.20714924582433E-07   1.67239230318147E-13   0.00000000000000E+00   0.00000000000000E+00
      0.00000000000000E+00  -3.63955978453779E-12  -1.97162270495976E-16  -1.10020316074496E-07  -1.10023955831442E-07
     -7.08653658340487E-14  -1.20000000000000E+01  -1.20000000000000E+01   0.00000000000000E+00  -1.19798234420662E-07
     -4.14748292391012E-15  -1.90892730182845E-07  -3.10690968750990E-07  -9.63738644840978E-14
      9.27891205158085E-10
      8.00000000000000E-01   8.00000000000000E-01   0.00000000000000E+00  -1.30350906799990E-11   3.86493378458433E-07
     -2.65032767337749E-11   3.86453840091019E-07   1.67264279566690E-13   0.00000000000000E+00   0.00000000000000E+00
      0.00000000000000E+00   1.27373177233121E-12  -1.97162284074949E-16  -1.12561644481422E-07  -1.12560370946812E-07
     -7.08784026142401E-14  -1.20000000000000E+01  -1.20000000000000E+01   0.00000000000000E+00  -8.58351854938265E-08
     -4.14789359565323E-15  -1.88058279502487E-07  -2.73893469144207E-07  -9.63858769524497E-14
      1.01556887284573E-09
      8.00000000000000E-01   8.00000000000000E-01   0.00000000000000E+00  -1.52732416873500E-11   3.54640463568860E-07
     -2.04817812048821E-11   3.54604708545968E-07   1.67280364788897E-13   0.00000000000000E+00   0.00000000000000E+00
      0.00000000000000E+00   4.95335768099066E-12  -1.97162277632242E-16  -1.07254282358681E-07  -1.07249329198162E-07
     -7.08880356991268E-14  -1.20000000000000E+01  -1.20000000000000E+01   0.00000000000000E+00  -6.14419459895008E-08
     -4.14811421173883E-15  -1.85913429210190E-07  -2.47355379347805E-07  -9.63923290897702E-14
      1.14708537437720E-09
      8.00000000000000E-01   8.00000000000000E-01   0.00000000000000E+00  -1.74408570476063E-11   2.99310571423432E-07
     -1.53124920224570E-11   2.99277818074362E-07   1.67299113507156E-13   0.00000000000000E+00   0.00000000000000E+00
      0.00000000000000E+00   9.32267761106886E-12  -1.97162244844650E-16  -8.90792267347796E-08  -8.90699042543308E-08
     -7.09009595114759E-14  -1.20000000000000E+01  -1.20000000000000E+01   0.00000000000000E+00  -2.74570981370965E-08
     -4.14831346758630E-15  -1.82750811534621E-07  -2.10207913820031E-07  -9.63981539956798E-14
      1.34436012667441E-09
      8.00000000000000E-01   8.00000000000000E-01   0.00000000000000E+00  -1.70138713639141E-11   2.11549606650209E-07
     -1.14248800172017E-11   2.11521167898828E-07   1.67313779703254E-13   0.00000000000000E+00   0.00000000000000E+00
      0.00000000000000E+00   1.17391231883487E-11  -1.97162168252898E-16  -4.86317225115992E-08  -4.86199835855730E-08
     -7.09145236563315E-14  -1.20000000000000E+01  -1.20000000000000E+01   0.00000000000000E+00   1.53212759357401E-08
     -4.14835147489840E-15  -1.78222456100644E-07  -1.62901184313255E-07  -9.63992560469230E-14
      1.38134914273013E-09
      8.00000000000000E-01   8.00000000000000E-01   0.00000000000000E+00  -1.64461420433786E-11   1.95750319797815E-07
     -1.09646484248642E-11   1.95722909007347E-07   1.67314717221560E-13   0.00000000000000E+00   0.00000000000000E+00
      0.00000000000000E+00   1.16174134425018E-11  -1.97162152964290E-16  -4.04034594855460E-08  -4.03918422692656E-08
     -7.09161534745796E-14  -1.20000000000000E+01  -1.20000000000000E+01   0.00000000000000E+00   2.20745114014545E-08
     -4.14832788901567E-15  -1.77405573991209E-07  -1.55331066738082E-07  -9.63985637469809E-14
      1.40909090477193E-09
      8.00000000000000E-01   8.00000000000000E-01   0.00000000000000E+00  -1.59588830533156E-11   1.84277171214662E-07
     -1.06480887110162E-11   1.84250564242898E-07   1.67315061720303E-13   0.00000000000000E+00   0.00000000000000E+00
      0.00000000000000E+00   1.14328199132156E-11  -1.97162141815081E-16  -3.43191721517445E-08  -3.43077395289934E-08
     -7.09171769813546E-14  -1.20000000000000E+01  -1.20000000000000E+01   0.00000000000000E+00   2.68567186513872E-08
     -4.14830474070728E-15  -1.76799539216987E-07  -1.49942824713904E-07  -9.63978847389487E-14
      1.41949406553760E-09
      8.00000000000000E-01   8.00000000000000E-01   0.00000000000000E+00  -1.57287261323256E-11   1.80068113218958E-07
     -1.05350248704325E-11   1.80041849467955E-07   1.67315113727000E-13   0.00000000000000E+00   0.00000000000000E+00
      0.00000000000000E+00   1.13432910832716E-11  -1.97162137724458E-16  -3.20670460302369E-08  -3.20557029363158E-08
     -7.09175174010298E-14  -1.20000000000000E+01  -1.20000000000000E+01   0.00000000000000E+00   2.85875426998445E-08
     -4.14829490585483E-15  -1.76573685083189E-07  -1.47986146531640E-07  -9.63975963259692E-14
      1.43509880668611E-09
      8.00000000000000E-01   8.00000000000000E-01   0.00000000000000E+00  -1.54521369157336E-11   1.73857472684875E-07
     -1.03707147424226E-11   1.73831649833217E-07   1.67315114714084E-13   0.00000000000000E+00   0.00000000000000E+00
      0.00000000000000E+00   1.11824169392962E-11  -1.97162131693846E-16  -2.87266437045899E-08  -2.87154614848128E-08
     -7.09179843003623E-14  -1.20000000000000E+01  -1.20000000000000E+01   0.00000000000000E+00   3.11201044317059E-08
     -4.14827901616078E-15  -1.76236288631831E-07  -1.45116188348405E-07  -9.63971304137208E-14
      1.45850591840888E-09
      8.00000000000000E-01   8.00000000000000E-01   0.00000000000000E+00  -1.49522525947278E-11   1.64785434641742E-07
     -1.01353218855732E-11   1.64760347067261E-07   1.67314946831093E-13   0.00000000000000E+00   0.00000000000000E+00
      0.00000000000000E+00   1.08900692734235E-11  -1.97162122905934E-16  -2.38145978468078E-08  -2.38037079746965E-08
     -7.09185878132649E-14  -1.20000000000000E+01  -1.20000000000000E+01   0.00000000000000E+00   3.47765460036109E-08
     -4.14825270379915E-15  -1.75733180947924E-07  -1.40956639092565E-07  -9.63963590178281E-14
      1.49361658599302E-09
      8.00000000000000E-01   8.00000000000000E-01   0.00000000000000E+00  -1.41505297581692E-11   1.51761492075808E-07
     -9.80467662137717E-12   1.51737536869429E-07   1.67314328055761E-13   0.00000000000000E+00   0.00000000000000E+00
      0.00000000000000E+00   1.03856359676592E-11  -1.97162110357837E-16  -1.67082594111554E-08  -1.66978739723499E-08
     -7.09192813664993E-14  -1.20000000000000E+01  -1.20000000000000E+01   0.00000000000000E+00   3.99450776904234E-08
     -4.14820793187737E-15  -1.74984736439294E-07  -1.35039662897079E-07  -9.63950466892617E-14
      1.54628258736924E-09
      8.00000000000000E-01   8.00000000000000E-01   0.00000000000000E+00  -1.28677160179765E-11   1.33628003163394E-07
     -9.35215449367131E-12   1.33605783292882E-07   1.67312625178953E-13   0.00000000000000E+00   0.00000000000000E+00
      0.00000000000000E+00   9.49192502585380E-12  -1.97162093063649E-16  -6.74816065978293E-09  -6.73866893191917E-09
     -7.09198700281708E-14  -1.20000000000000E+01  -1.20000000000000E+01   0.00000000000000E+00   4.70068863549705E-08
     -4.14812973772664E-15  -1.73873996567803E-07  -1.26867114360963E-07  -9.63927551507825E-14
      1.62528158943357E-09
      8.00000000000000E-01   8.00000000000000E-01   0.00000000000000E+00  -1.08746847076983E-11   1.09735832977794E-07
     -8.75237537821520E-12   1.09716205917708E-07   1.67308509790631E-13   0.00000000000000E+00   0.00000000000000E+00
      0.00000000000000E+00   7.96048844718805E-12  -1.97162070544752E-16   6.36434726078513E-09   6.37230755207025E-09
     -7.09198344619206E-14  -1.20000000000000E+01  -1.20000000000000E+01   0.00000000000000E+00   5.61373741424218E-08
     -4.14799049668613E-15  -1.72225883464210E-07  -1.16088513469778E-07  -9.63886753287095E-14
      1.74378009253006E-09
      8.00000000000000E-01   8.00000000000000E-01   0.00000000000000E+00  -8.03040229663388E-12   8.12450794169845E-08
     -7.98524628102955E-12   8.12290637684069E-08   1.67299448167563E-13   0.00000000000000E+00   0.00000000000000E+00
      0.00000000000000E+00   5.57590341482273E-12  -1.97162043012608E-16   2.15888336146455E-08   2.15944093208982E-08
     -7.09180806647688E-14  -1.20000000000000E+01  -1.20000000000000E+01   0.00000000000000E+00   6.69313489759445E-08
     -4.14774104922410E-15  -1.69754817917509E-07  -1.02823473089305E-07  -9.63813675027952E-14
      1.92152784717480E-09
      8.00000000000000E-01   8.00000000000000E-01   0.00000000000000E+00  -4.65230027142495E-12   5.27524559534737E-08
     -7.03673349556986E-12   5.27407669197067E-08   1.67281290147014E-13   0.00000000000000E+00   0.00000000000000E+00
      0.00000000000000E+00   2.54205456530147E-12  -1.97162007709941E-16   3.51421682772098E-08   3.51447101346131E-08
     -7.09128415386500E-14  -1.20000000000000E+01  -1.20000000000000E+01   0.00000000000000E+00   7.79885664968270E-08
     -4.14730002981135E-15  -1.65874039403847E-07  -8.78854770543199E-08  -9.63684486083649E-14
      2.05483866315836E-09
      8.00000000000000E-01   8.00000000000000E-01   0.00000000000000E+00  -2.95188655133077E-12   3.98976620176247E-08
     -6.43494287144609E-12   3.98882751882019E-08   1.67265428803855E-13   0.00000000000000E+00   0.00000000000000E+00
      0.00000000000000E+00   9.45753207549421E-13  -1.97161979723228E-16   3.94790674181157E-08   3.94800129741612E-08
     -7.09077412513403E-14  -1.20000000000000E+01  -1.20000000000000E+01   0.00000000000000E+00   8.32802358261451E-08
     -4.14693266308230E-15  -1.62648519841576E-07  -7.93682881623633E-08  -9.63576875525157E-14
      2.25480488713369E-09
      8.00000000000000E-01   8.00000000000000E-01   0.00000000000000E+00  -1.48783979022605E-12   2.87293466884871E-08
     -5.64993269619106E-12   2.87222089160006E-08   1.67240092178196E-13   0.00000000000000E+00   0.00000000000000E+00
      0.00000000000000E+00  -4.48465046900297E-13  -1.97161930088900E-16   4.02406943404845E-08   4.02402456782757E-08
     -7.08995517655866E-14  -1.20000000000000E+01  -1.20000000000000E+01   0.00000000000000E+00   8.79322554396520E-08
     -4.14634729678606E-15  -1.56894705887581E-07  -6.89624545942763E-08  -9.63405404126097E-14
      2.40477955511519E-09
      8.00000000000000E-01   8.00000000000000E-01   0.00000000000000E+00  -9.56512763866272E-13   2.40429710674120E-08
     -5.13310161025136E-12   2.40368814530379E-08   1.67220749588081E-13   0.00000000000000E+00   0.00000000000000E+00
      0.00000000000000E+00  -9.36834855503574E-13  -1.97161889326969E-16   3.82106481903436E-08   3.82097111583262E-08
     -7.08935144441300E-14  -1.20000000000000E+01  -1.20000000000000E+01   0.00000000000000E+00   8.93668317465392E-08
     -4.14589310119660E-15  -1.51613420212010E-07  -6.22465926113641E-08  -9.63272351439515E-14
      2.62974155708744E-09
      8.00000000000000E-01   8.00000000000000E-01   0.00000000000000E+00  -5.90842079861119E-13   1.95888182268993E-08
     -4.44790407132195E-12   1.95837794807481E-08   1.67192374949868E-13   0.00000000000000E+00   0.00000000000000E+00
      0.00000000000000E+00  -1.20963154749935E-12  -1.97161833314679E-16   3.35364526649388E-08   3.35352428362295E-08
     -7.08851994487437E-14  -1.20000000000000E+01  -1.20000000000000E+01   0.00000000000000E+00   8.86912198029941E-08
     -4.14520836693210E-15  -1.41810237974763E-07  -5.31190223169776E-08  -9.63071755011244E-14
      2.79846305856663E-09
      8.00000000000000E-01   8.00000000000000E-01   0.00000000000000E+00  -4.74978293690464E-13   1.72441402320696E-08
     -3.99488208163940E-12   1.72396703716943E-08   1.67172105813774E-13   0.00000000000000E+00   0.00000000000000E+00
      0.00000000000000E+00  -1.22234362323721E-12  -1.97161801366481E-16   2.96128187683024E-08   2.96115962275173E-08
     -7.08796879907874E-14  -1.20000000000000E+01  -1.20000000000000E+01   0.00000000000000E+00   8.60986238921280E-08
     -4.14470463409945E-15  -1.32949886346635E-07  -4.68512665992115E-08  -9.62924178229866E-14
      3.05154531078541E-09
      8.00000000000000E-01   8.00000000000000E-01   0.00000000000000E+00  -3.80731346812634E-13   1.44123627506677E-08
     -3.39841772445395E-12   1.44085836015964E-08   1.67144093756289E-13   0.00000000000000E+00   0.00000000000000E+00
      0.00000000000000E+00  -1.12267605296623E-12  -1.97161774398576E-16   2.39356815771989E-08   2.39345587039841E-08
     -7.08726385525263E-14  -1.20000000000000E+01  -1.20000000000000E+01   0.00000000000000E+00   7.92924932618030E-08
     -4.14398911901538E-15  -1.17635631423394E-07  -3.83431423055805E-08  -9.62714552037637E-14
      3.24135699994950E-09
      8.00000000000000E-01   8.00000000000000E-01   0.00000000000000E+00  -3.33655886418673E-13   1.26298639609370E-08
     -3.00906255567317E-12   1.26265212424949E-08   1.67125309700356E-13   0.00000000000000E+00   0.00000000000000E+00
      0.00000000000000E+00  -1.00253076989706E-12  -1.97161769120550E-16   2.00850810675267E-08   2.00840783395950E-08
     -7.08682580908072E-14  -1.20000000000000E+01  -1.20000000000000E+01   0.00000000000000E+00   7.23718722592882E-08
     -4.14349748581872E-15  -1.05082467697881E-07  -3.27105995820899E-08  -9.62570516095486E-14
      3.52607453369562E-09
      8.00000000000000E-01   8.00000000000000E-01   0.00000000000000E+00  -2.74878314323460E-13   1.03514140063710E-08
     -2.50495351461303E-12   1.03486341745420E-08   1.67101093647672E-13   0.00000000000000E+00   0.00000000000000E+00
      0.00000000000000E+00  -8.04902566109966E-13  -1.97161777853941E-16   1.51735178071497E-08   1.51727127074218E-08
     -7.08629563113983E-14  -1.20000000000000E+01  -1.20000000000000E+01   0.00000000000000E+00   6.04004703692301E-08
     -4.14285188525513E-15  -8.59218131083420E-08  -2.55213468819638E-08  -9.62381373362742E-14
      3.95315083431482E-09
      8.00000000000000E-01   8.00000000000000E-01   0.00000000000000E+00  -2.02677651490780E-13   7.67229060800408E-09
     -1.89920074860062E-12   7.67018872960398E-09   1.67073515310026E-13   0.00000000000000E+00   0.00000000000000E+00
      0.00000000000000E+00  -5.29222611407733E-13  -1.97161810420276E-16   9.75743921070890E-09   9.75690979093568E-09
     -7.08572748715509E-14  -1.20000000000000E+01  -1.20000000000000E+01   0.00000000000000E+00   4.23188723097439E-08
     -4.14210446598669E-15  -5.97459666881792E-08  -1.74270985205397E-08  -9.62162404384761E-14
      4.59376528524361E-09
      8.00000000000000E-01   8.00000000000000E-01   0.00000000000000E+00  -1.25544973933156E-13   4.92842931549354E-09
     -1.24893444100112E-12   4.92705483607861E-09   1.67048125405407E-13   0.00000000000000E+00   0.00000000000000E+00
      0.00000000000000E+00  -2.45306451174851E-13  -1.97161870160863E-16   5.11113308254346E-09   5.11088757893041E-09
     -7.08521254531183E-14  -1.20000000000000E+01  -1.20000000000000E+01   0.00000000000000E+00   2.17532400133382E-08
     -4.14141357953118E-15  -3.17911782869336E-08  -1.00379424150090E-08  -9.61959999522887E-14
      5.55468696163679E-09
      8.00000000000000E-01   8.00000000000000E-01   0.00000000000000E+00  -6.23538273552237E-14   2.60314705933100E-09
     -6.59882924719375E-13   2.60242482257892E-09   1.67030730370826E-13   0.00000000000000E+00   0.00000000000000E+00
      0.00000000000000E+00  -7.50204995827662E-14  -1.97161952312200E-16   2.33412144033057E-09   2.33404622266903E-09
     -7.08481995730960E-14  -1.20000000000000E+01  -1.20000000000000E+01   0.00000000000000E+00   7.59929427509081E-09
     -4.14095378604647E-15  -1.25357611793850E-08  -4.93647104524794E-09  -9.61825307977299E-14
      6.99606947622656E-09
      8.00000000000000E-01   8.00000000000000E-01   0.00000000000000E+00  -2.42399198131783E-14   1.01323126735016E-09
     -2.46651081669810E-13   1.01296037634868E-09   1.67021094135646E-13   0.00000000000000E+00   0.00000000000000E+00
      0.00000000000000E+00  -2.72312173196436E-14  -1.97162042727689E-16   1.00929724374568E-09   1.00926981536632E-09
     -7.08455524079317E-14  -1.20000000000000E+01  -1.20000000000000E+01   0.00000000000000E+00   2.67071979934359E-09
     -4.14071506972766E-15  -4.69294585034351E-09  -2.02223019171499E-09  -9.61755417277142E-14
      9.15814324811123E-09
      8.00000000000000E-01   8.00000000000000E-01   0.00000000000000E+00  -5.46711685044432E-15   2.16611639433850E-10
     -5.07649724901838E-14   2.16555407344509E-10   1.67016105881412E-13   0.00000000000000E+00   0.00000000000000E+00