DF-ISE text

Info {
  version   = 1.0
  type      = xyplot
  datasets  = [
    "time"
    "Ntop OuterVoltage" "Ntop InnerVoltage" "Ntop QuasiFermiPotential" "Ntop DisplacementCurrent" "Ntop eCurrent"
    "Ntop hCurrent" "Ntop TotalCurrent" "Ntop Charge" "Ptop OuterVoltage" "Ptop InnerVoltage"
    "Ptop QuasiFermiPotential" "Ptop DisplacementCurrent" "Ptop eCurrent" "Ptop hCurrent" "Ptop TotalCurrent"
    "Ptop Charge" "Pbot OuterVoltage" "Pbot InnerVoltage" "Pbot QuasiFermiPotential" "Pbot DisplacementCurrent"
    "Pbot eCurrent" "Pbot hCurrent" "Pbot TotalCurrent" "Pbot Charge" ]
  functions = [
    Time
    OuterVoltage InnerVoltage QuasiFermiPotential DisplacementCurrent eCurrent
    hCurrent TotalCurrent Charge OuterVoltage InnerVoltage
    QuasiFermiPotential DisplacementCurrent eCurrent hCurrent TotalCurrent
    Charge OuterVoltage InnerVoltage QuasiFermiPotential DisplacementCurrent
    eCurrent hCurrent TotalCurrent Charge ]
}

Data {
      5.00000000000000E-13
      8.00000000000000E-01   8.00000000000000E-01   0.00000000000000E+00   7.03144600113636E-15   4.10704878837983E-12
     -3.82934067532483E-12   2.84739559056131E-13   1.67014632697981E-13   0.00000000000000E+00   0.00000000000000E+00
      0.00000000000000E+00  -1.18706861693435E-13  -1.97161987554755E-16   6.32410719258299E-11   6.31221679021489E-11
     -7.08437734486377E-14  -1.20000000000000E+01  -1.20000000000000E+01   0.00000000000000E+00  -1.35756367642730E-13
      7.63588164618598E-12  -7.09070327397484E-11  -6.34069074612051E-11  -9.61708592493441E-14
      1.25000000000000E-12
      8.00000000000000E-01   8.00000000000000E-01   0.00000000000000E+00   4.83902516148578E-14   1.85128648490650E-11
     -1.76697896104710E-11   8.91465490208794E-13   1.67014632698175E-13   0.00000000000000E+00   0.00000000000000E+00
      0.00000000000000E+00  -1.19429208670739E-13  -1.97161987554023E-16   6.36041631940565E-11   6.34845368233982E-11
     -7.08437734484650E-14  -1.20000000000000E+01  -1.20000000000000E+01   0.00000000000000E+00  -8.65048984846608E-13
      3.52415043388754E-11  -9.87524576676357E-11  -6.43760023136070E-11  -9.61708592497087E-14
      2.37500000000000E-12
      8.00000000000000E-01   8.00000000000000E-01   0.00000000000000E+00   3.38488554754476E-13   1.53964659919801E-10
     -1.46201676451195E-10   8.10147202336033E-12   1.67014632700961E-13   0.00000000000000E+00   0.00000000000000E+00
      0.00000000000000E+00   3.58719219024566E-13  -1.97161987546456E-16   6.73547475117569E-11   6.77132695687939E-11
     -7.08437734458197E-14  -1.20000000000000E+01  -1.20000000000000E+01   0.00000000000000E+00  -9.46682006807176E-12
      2.91528077534919E-10  -3.57875999059001E-10  -7.58147415921541E-11  -9.61708592551411E-14
      4.06250000000000E-12
      8.00000000000000E-01   8.00000000000000E-01   0.00000000000000E+00   5.09635531279580E-12   2.37944759842728E-09
     -2.21791345621423E-09   1.66630497525843E-10   1.67014632783272E-13   0.00000000000000E+00   0.00000000000000E+00
      0.00000000000000E+00   4.57513340355772E-12  -1.97161987363593E-16   1.57913720166804E-10   1.62488656408375E-10
     -7.08437733654275E-14  -1.20000000000000E+01  -1.20000000000000E+01   0.00000000000000E+00  -2.00020753964897E-10
      4.42025229980145E-09  -4.54935069977077E-09  -3.29119153934218E-10  -9.61708594178436E-14
      6.59375000000000E-12
      8.00000000000000E-01   8.00000000000000E-01   0.00000000000000E+00   1.01402481327050E-10   4.91401650982026E-08
     -4.43857771779693E-08   4.85579040156037E-09   1.67014636302727E-13   0.00000000000000E+00   0.00000000000000E+00
      0.00000000000000E+00   9.25961696631647E-11  -1.97161981742539E-16   2.93814414596498E-09   3.03074011846616E-09
     -7.08437698219792E-14  -1.20000000000000E+01  -1.20000000000000E+01   0.00000000000000E+00  -5.88871075358336E-09
      8.83818396936988E-08  -9.03796594601420E-08  -7.88653052002657E-09  -9.61708664807463E-14
      1.03906250000000E-11
      8.00000000000000E-01   8.00000000000000E-01   0.00000000000000E+00   8.47983562692646E-10   4.34232972470287E-07
     -3.69433195953047E-07   6.56477600799333E-08   1.67014711369934E-13   0.00000000000000E+00   0.00000000000000E+00
      0.00000000000000E+00   7.66294728618967E-10  -1.97161907437875E-16   3.96362994372841E-08   4.04025939687412E-08
     -7.08436933268641E-14  -1.20000000000000E+01  -1.20000000000000E+01   0.00000000000000E+00  -7.98132898469551E-08
      7.34363352800375E-07  -7.60600417002094E-07  -1.06050354048674E-07  -9.61710180430694E-14
      1.60859375000000E-11
      8.00000000000000E-01   8.00000000000000E-01   0.00000000000000E+00   4.96984702622241E-10   3.59124190474847E-07
     -1.97691733310925E-07   1.61929441866544E-07   1.67015109190877E-13   0.00000000000000E+00   0.00000000000000E+00
      0.00000000000000E+00   3.44202067536624E-10  -1.97161796070802E-16   9.43735749360796E-08   9.47177768064544E-08
     -7.08433007431660E-14  -1.20000000000000E+01  -1.20000000000000E+01   0.00000000000000E+00  -1.93056921767768E-07
      3.86959005391441E-07  -4.50549302296671E-07  -2.56647218672999E-07  -9.61718084477113E-14
      2.46289062500000E-11
      8.00000000000000E-01   8.00000000000000E-01   0.00000000000000E+00   6.87651010280856E-11   2.17455586540537E-07
     -4.93757336414314E-09   2.12586778277422E-07   1.67016110324141E-13   0.00000000000000E+00   0.00000000000000E+00
      0.00000000000000E+00  -7.93101172646438E-11  -1.97161769920358E-16   1.06833412727528E-07   1.06754102413101E-07
     -7.08424233277175E-14  -1.20000000000000E+01  -1.20000000000000E+01   0.00000000000000E+00  -2.38764700167691E-07
      7.17027328350120E-10  -8.12932078511818E-08  -3.19340880690523E-07  -9.61736869964233E-14
      3.74433593750000E-11
      8.00000000000000E-01   8.00000000000000E-01   0.00000000000000E+00   5.08962473924366E-11   2.34798385138767E-07
     -4.16168097166251E-09   2.30687600414497E-07   1.67017901511879E-13   0.00000000000000E+00   0.00000000000000E+00
      0.00000000000000E+00  -6.18286988610984E-11  -1.97161802952987E-16   9.00083897752145E-08   8.99465608791916E-08
     -7.08411675521578E-14  -1.20000000000000E+01  -1.20000000000000E+01   0.00000000000000E+00  -2.36647220571859E-07
     -4.07838935294125E-15  -8.39869366434397E-08  -3.20634161293688E-07  -9.61767339597214E-14
      5.66650390625000E-11
      8.00000000000000E-01   8.00000000000000E-01   0.00000000000000E+00   3.60910917382166E-11   2.53571675656161E-07
     -3.60280154795376E-09   2.50004965199946E-07   1.67020874155049E-13   0.00000000000000E+00   0.00000000000000E+00
      0.00000000000000E+00  -4.69631349024388E-11  -1.97161841807916E-16   7.02552593927828E-08   7.02082960607185E-08
     -7.08396371110136E-14  -1.20000000000000E+01  -1.20000000000000E+01   0.00000000000000E+00  -2.31825600672847E-07
     -4.10470115521739E-15  -8.83876564831176E-08  -3.20213261260665E-07  -9.61812370440359E-14
      8.54975585937500E-11
      8.00000000000000E-01   8.00000000000000E-01   0.00000000000000E+00   2.21913460802911E-11   2.71727608136294E-07
     -2.90137806843869E-09   2.68848421413936E-07   1.67025743439370E-13   0.00000000000000E+00   0.00000000000000E+00
      0.00000000000000E+00  -3.26875356070933E-11  -1.97161884546642E-16   4.86566756180239E-08   4.86239878852549E-08
     -7.08379398598148E-14  -1.20000000000000E+01  -1.20000000000000E+01   0.00000000000000E+00  -2.23617734843869E-07
     -4.12426518330825E-15  -9.38546703310576E-08  -3.17472409299192E-07  -9.61878035795548E-14
      1.28746337890625E-10
      8.00000000000000E-01   8.00000000000000E-01   0.00000000000000E+00   1.04999307388877E-11   2.86024700385504E-07
     -2.09607431959884E-09   2.83939125996644E-07   1.67033528089767E-13   0.00000000000000E+00   0.00000000000000E+00
      0.00000000000000E+00  -2.04051306342739E-11  -1.97161927922201E-16   2.71212278837155E-08   2.71008225559193E-08
     -7.08363287862331E-14  -1.20000000000000E+01  -1.20000000000000E+01   0.00000000000000E+00  -2.10896174469926E-07
     -4.13598502812605E-15  -1.00143769946653E-07  -3.11039948552564E-07  -9.61971993035343E-14
      1.93619506835937E-10
      8.00000000000000E-01   8.00000000000000E-01   0.00000000000000E+00   2.17810312253046E-12   2.92780823057496E-07
     -1.28638407895659E-09   2.91496617081662E-07   1.67045523577469E-13   0.00000000000000E+00   0.00000000000000E+00
      0.00000000000000E+00  -1.15709903970886E-11  -1.97161968575758E-16   7.79675228654739E-09   7.78518109898833E-09
     -7.08352350741298E-14  -1.20000000000000E+01  -1.20000000000000E+01   0.00000000000000E+00  -1.92777665509205E-07
     -4.14100421546649E-15  -1.06504128530441E-07  -2.99281798180649E-07  -9.62102885033391E-14
      2.42274383544922E-10
      8.00000000000000E-01   8.00000000000000E-01   0.00000000000000E+00  -5.11713526587187E-13   2.92277936413007E-07
     -8.95992171311149E-10   2.91381432528169E-07   1.67054456442794E-13   0.00000000000000E+00   0.00000000000000E+00
      0.00000000000000E+00  -8.75000097378404E-12  -1.97161989568018E-16  -1.54400221429290E-09  -1.55275241242867E-09
     -7.08350939406266E-14  -1.20000000000000E+01  -1.20000000000000E+01   0.00000000000000E+00  -1.80296528277051E-07
     -4.14196234875666E-15  -1.09532147696728E-07  -2.89828680115741E-07  -9.62193625021672E-14
      3.15256698608398E-10
      8.00000000000000E-01   8.00000000000000E-01   0.00000000000000E+00  -2.21294419866278E-12   2.88342178112977E-07
     -5.22227075796796E-10   2.87817738092981E-07   1.67067506650439E-13   0.00000000000000E+00   0.00000000000000E+00
      0.00000000000000E+00  -7.04366818242108E-12  -1.97162015576319E-16  -1.24214859767214E-08  -1.24285298420658E-08
     -7.08356167420174E-14  -1.20000000000000E+01  -1.20000000000000E+01   0.00000000000000E+00  -1.63144905585553E-07
     -4.14261121118707E-15  -1.12244298522750E-07  -2.75389208250915E-07  -9.62318899084219E-14
      3.69993434906006E-10
      8.00000000000000E-01   8.00000000000000E-01   0.00000000000000E+00  -2.61539810063262E-12   2.84449535006337E-07
     -3.51710171050616E-10   2.84095209437186E-07   1.67076989329438E-13   0.00000000000000E+00   0.00000000000000E+00
      0.00000000000000E+00  -6.65994006627830E-12  -1.97162033451685E-16  -1.95540612479093E-08  -1.95607213851376E-08
     -7.08364961305297E-14  -1.20000000000000E+01  -1.20000000000000E+01   0.00000000000000E+00  -1.51266303711808E-07
     -4.14292620109829E-15  -1.13268180197315E-07  -2.64534488052049E-07  -9.62404931989083E-14
      4.52098539352417E-10
      8.00000000000000E-01   8.00000000000000E-01   0.00000000000000E+00  -2.81019109519339E-12   2.78365982630951E-07
     -1.96463171208840E-10   2.78166709268647E-07   1.67090749848549E-13   0.00000000000000E+00   0.00000000000000E+00
      0.00000000000000E+00  -6.44734682622622E-12  -1.97162059728486E-16  -2.97971527644407E-08  -2.98036003084290E-08
     -7.08385265182723E-14  -1.20000000000000E+01  -1.20000000000000E+01   0.00000000000000E+00  -1.34563171479566E-07
     -4.14333270369770E-15  -1.13799933337319E-07  -2.48363108960217E-07  -9.62522233302773E-14
      5.13677367687225E-10
      8.00000000000000E-01   8.00000000000000E-01   0.00000000000000E+00  -2.92399986662448E-12   2.73736609435515E-07
     -1.29538916750109E-10   2.73604146518898E-07   1.67100734952671E-13   0.00000000000000E+00   0.00000000000000E+00
      0.00000000000000E+00  -6.25658503625751E-12  -1.97162079109906E-16  -3.72468587471904E-08  -3.72531155293888E-08
     -7.08405924059675E-14  -1.20000000000000E+01  -1.20000000000000E+01   0.00000000000000E+00  -1.22679676914563E-07
     -4.14360370174083E-15  -1.13671349931342E-07  -2.36351030989509E-07  -9.62601425467039E-14
      5.59861488938332E-10
      8.00000000000000E-01   8.00000000000000E-01   0.00000000000000E+00  -3.08142817383522E-12   2.70147083923438E-07
     -9.60566292438604E-11   2.70047945866020E-07   1.67108045575918E-13   0.00000000000000E+00   0.00000000000000E+00
      0.00000000000000E+00  -6.00202785627508E-12  -1.97162093237624E-16  -4.26319763320440E-08  -4.26379785570623E-08
     -7.08424373854126E-14  -1.20000000000000E+01  -1.20000000000000E+01   0.00000000000000E+00  -1.14025509901578E-07
     -4.14379060365702E-15  -1.13384453263589E-07  -2.27409967308957E-07  -9.62656081905067E-14
      6.29137670814991E-10
      8.00000000000000E-01   8.00000000000000E-01   0.00000000000000E+00  -3.49606038104918E-12   2.64296982846917E-07
     -6.26562368999943E-11   2.64230830549636E-07   1.67118718871085E-13   0.00000000000000E+00   0.00000000000000E+00
      0.00000000000000E+00  -5.36832487319335E-12  -1.97162113125091E-16  -5.01229437035522E-08  -5.01283122255875E-08
     -7.08456514442156E-14  -1.20000000000000E+01  -1.20000000000000E+01   0.00000000000000E+00  -1.01349348793161E-07
     -4.14404564718473E-15  -1.12753165386842E-07  -2.14102518324048E-07  -9.62730674268687E-14
      7.33051943629980E-10
      8.00000000000000E-01   8.00000000000000E-01   0.00000000000000E+00  -4.56416282369682E-12   2.53599366383678E-07
     -3.50519082026318E-11   2.53559750312652E-07   1.67133975166170E-13   0.00000000000000E+00   0.00000000000000E+00
      0.00000000000000E+00  -3.78000238424938E-12  -1.97162137976591E-16  -5.91793170400152E-08  -5.91830972395616E-08
     -7.08513398079419E-14  -1.20000000000000E+01  -1.20000000000000E+01   0.00000000000000E+00  -8.28463230217226E-08
     -4.14437277830902E-15  -1.11530325906995E-07  -1.94376653073090E-07  -9.62826353582285E-14
      8.10987648241222E-10
      8.00000000000000E-01   8.00000000000000E-01   0.00000000000000E+00  -5.67484076596850E-12   2.43371333918259E-07
     -2.42833975113851E-11   2.43341375679981E-07   1.67144687255082E-13   0.00000000000000E+00   0.00000000000000E+00
      0.00000000000000E+00  -2.13843508395764E-12  -1.97162151021220E-16  -6.35433865962704E-08  -6.35455252285165E-08
     -7.08561238869346E-14  -1.20000000000000E+01  -1.20000000000000E+01   0.00000000000000E+00  -6.93029766460399E-08
     -4.14457545665192E-15  -1.10492869660849E-07  -1.79795850451465E-07  -9.62885633681474E-14
      9.27891205158085E-10
      8.00000000000000E-01   8.00000000000000E-01   0.00000000000000E+00  -7.56009022674188E-12   2.23519273978221E-07
     -1.55080386892395E-11   2.23496205849305E-07   1.67159167448407E-13   0.00000000000000E+00   0.00000000000000E+00
      0.00000000000000E+00   7.31513776334307E-13  -1.97162158968899E-16  -6.50580127079588E-08  -6.50572813913446E-08
     -7.08636595431433E-14  -1.20000000000000E+01  -1.20000000000000E+01   0.00000000000000E+00  -4.95752506620755E-08
     -4.14481288641891E-15  -1.08863669651072E-07  -1.58438924457961E-07  -9.62955079052632E-14
      1.10324654053338E-09
      8.00000000000000E-01   8.00000000000000E-01   0.00000000000000E+00  -9.81306700356486E-12   1.84217442317015E-07
     -9.76354751244563E-12   1.84197865702499E-07   1.67176082775222E-13   0.00000000000000E+00   0.00000000000000E+00
      0.00000000000000E+00   4.67098119513641E-12  -1.97162144428420E-16  -5.57553083410963E-08  -5.57506375570633E-08
     -7.08743198750206E-14  -1.20000000000000E+01  -1.20000000000000E+01   0.00000000000000E+00  -2.20392988554112E-08
     -4.14502674118801E-15  -1.06407925144998E-07  -1.28447228145436E-07  -9.63017629002015E-14
      1.23476304206485E-09
      8.00000000000000E-01   8.00000000000000E-01   0.00000000000000E+00  -1.03306174192052E-11   1.50155024414036E-07
     -7.84898893161521E-12   1.50136844807685E-07   1.67184173823372E-13   0.00000000000000E+00   0.00000000000000E+00
      0.00000000000000E+00   6.42060072659450E-12  -1.97162118021839E-16  -4.16812677758559E-08  -4.16748473722914E-08
     -7.08807239904554E-14  -1.20000000000000E+01  -1.20000000000000E+01   0.00000000000000E+00  -3.83916759129139E-09
     -4.14508442528987E-15  -1.04622825699019E-07  -1.08461997435394E-07  -9.63034498329171E-14
      1.43203779436206E-09
      8.00000000000000E-01   8.00000000000000E-01   0.00000000000000E+00  -9.01714170179930E-12   1.00974716861647E-07
     -6.21973058596015E-12   1.00959479989359E-07   1.67188443946645E-13   0.00000000000000E+00   0.00000000000000E+00
      0.00000000000000E+00   6.52138298075645E-12  -1.97162073634958E-16  -1.69351766648929E-08  -1.69286554790743E-08
     -7.08864551774369E-14  -1.20000000000000E+01  -1.20000000000000E+01   0.00000000000000E+00   1.80551616156885E-08
     -4.14503450779757E-15  -1.02085981980939E-07  -8.40308245102849E-08  -9.63019887692069E-14
      1.57999385858496E-09
      8.00000000000000E-01   8.00000000000000E-01   0.00000000000000E+00  -6.98220554120104E-12   7.07503703590843E-08
     -5.45013610210333E-12   7.07379380174410E-08   1.67186086283176E-13   0.00000000000000E+00   0.00000000000000E+00
      0.00000000000000E+00   5.16159038558891E-12  -1.97162048321898E-16  -4.14250867264996E-10  -4.09089474041455E-10
     -7.08876727363819E-14  -1.20000000000000E+01  -1.20000000000000E+01   0.00000000000000E+00   2.99521139659131E-08
     -4.14491231863394E-15  -1.00280958364400E-07  -7.03288485433995E-08  -9.62984135467934E-14
      1.80192795491932E-09
      8.00000000000000E-01   8.00000000000000E-01   0.00000000000000E+00  -3.91836232784084E-12   4.01035448990264E-08
     -4.60003905044839E-12   4.00950264976482E-08   1.67176192176674E-13   0.00000000000000E+00   0.00000000000000E+00
      0.00000000000000E+00   2.60331211639256E-12  -1.97162029515487E-16   1.59081992817554E-08   1.59108023967098E-08
     -7.08857782937347E-14  -1.20000000000000E+01  -1.20000000000000E+01   0.00000000000000E+00   4.15959744348547E-08
     -4.14463891468850E-15  -9.76017991845736E-08  -5.60058288943578E-08  -9.62904138829395E-14
      1.96837852717008E-09
      8.00000000000000E-01   8.00000000000000E-01   0.00000000000000E+00  -2.25388823520482E-12   2.71165270653827E-08
     -4.10140543707083E-12   2.71101717717105E-08   1.67165601633877E-13   0.00000000000000E+00   0.00000000000000E+00
      0.00000000000000E+00   1.07410527708193E-12  -1.97162023621379E-16   2.16346942108445E-08   2.16357681189595E-08
     -7.08825537807426E-14  -1.20000000000000E+01  -1.20000000000000E+01   0.00000000000000E+00   4.67113592028813E-08
     -4.14438717578358E-15  -9.54572949491640E-08  -4.87459398906698E-08  -9.62830478531341E-14
      2.09321645635816E-09
      8.00000000000000E-01   8.00000000000000E-01   0.00000000000000E+00  -1.44911321158518E-12   2.12409740051371E-08
     -3.77588323201880E-12   2.12357490086935E-08   1.67156743789669E-13   0.00000000000000E+00   0.00000000000000E+00
      0.00000000000000E+00   3.08361974268546E-13  -1.97162018771238E-16   2.32331691365925E-08   2.32334773014048E-08
     -7.08796868087633E-14  -1.20000000000000E+01  -1.20000000000000E+01   0.00000000000000E+00   4.91871516013746E-08
     -4.14418244413633E-15  -9.36563737672903E-08  -4.44692263100982E-08  -9.62770569809047E-14
      2.28047335014027E-09
      8.00000000000000E-01   8.00000000000000E-01   0.00000000000000E+00  -7.63683422662191E-13   1.60072867894067E-08
     -3.34414400876720E-12   1.60031789619752E-08   1.67142866788500E-13   0.00000000000000E+00   0.00000000000000E+00
      0.00000000000000E+00  -3.49355441007229E-13  -1.97162007121260E-16   2.30747282629783E-08   2.30743787103753E-08
     -7.08752374772730E-14  -1.20000000000000E+01  -1.20000000000000E+01   0.00000000000000E+00   5.13675467967286E-08
     -4.14386028650942E-15  -9.04451003252189E-08  -3.90775576723506E-08  -9.62676293112270E-14
      2.42091602047686E-09
      8.00000000000000E-01   8.00000000000000E-01   0.00000000000000E+00  -5.13118837246142E-13   1.37053237226776E-08
     -3.05656467591196E-12   1.37017540391644E-08   1.67132368449126E-13   0.00000000000000E+00   0.00000000000000E+00
      0.00000000000000E+00  -5.78714043876363E-13  -1.97161995619440E-16   2.18118051182456E-08   2.18112262070397E-08
     -7.08720028554047E-14  -1.20000000000000E+01  -1.20000000000000E+01   0.00000000000000E+00   5.20056726832733E-08
     -4.14361209443045E-15  -8.75186487858653E-08  -3.55129802462041E-08  -9.62603655937202E-14
      2.63158002598173E-09
      8.00000000000000E-01   8.00000000000000E-01   0.00000000000000E+00  -3.35077293905000E-13   1.14087869213662E-08
     -2.67227038078075E-12   1.14057795736915E-08   1.67116996041588E-13   0.00000000000000E+00   0.00000000000000E+00
      0.00000000000000E+00  -7.05325361063723E-13  -1.97161978597296E-16   1.92032509029266E-08   1.92025453804036E-08
     -7.08675516394929E-14  -1.20000000000000E+01  -1.20000000000000E+01   0.00000000000000E+00   5.15347530877548E-08
     -4.14323896498329E-15  -8.21430738986110E-08  -3.06083249540951E-08  -9.62494444020942E-14
      2.78957803011039E-09
      8.00000000000000E-01   8.00000000000000E-01   0.00000000000000E+00  -2.75258312506275E-13   1.01503253602548E-08
     -2.41632338691762E-12   1.01476337785553E-08   1.67105995583298E-13   0.00000000000000E+00   0.00000000000000E+00
      0.00000000000000E+00  -7.09010946697833E-13  -1.97161968997482E-16   1.70667109680572E-08   1.70660017599485E-08
     -7.08645869870090E-14  -1.20000000000000E+01  -1.20000000000000E+01   0.00000000000000E+00   5.01101640760977E-08
     -4.14296444195502E-15  -7.73237954716371E-08  -2.72136355385038E-08  -9.62414085962897E-14
      3.02657503630338E-09
      8.00000000000000E-01   8.00000000000000E-01   0.00000000000000E+00  -2.24532486717181E-13   8.60151394698011E-09
     -2.07682592709994E-12   8.59921258856629E-09   1.67090710374835E-13   0.00000000000000E+00   0.00000000000000E+00
      0.00000000000000E+00  -6.55058846858655E-13  -1.97161962725883E-16   1.39741422858223E-08   1.39734870298135E-08
     -7.08607604806940E-14  -1.20000000000000E+01  -1.20000000000000E+01   0.00000000000000E+00   4.64473081198311E-08
     -4.14257302012615E-15  -6.90200035956379E-08  -2.25726996183798E-08  -9.62299498941413E-14
      3.20432279094812E-09
      8.00000000000000E-01   8.00000000000000E-01   0.00000000000000E+00  -1.98647246164529E-13   7.61360200512057E-09
     -1.85334976017573E-12   7.61155000811423E-09   1.67080373836690E-13   0.00000000000000E+00   0.00000000000000E+00
      0.00000000000000E+00  -5.90467907671257E-13  -1.97161964208231E-16   1.18608446985230E-08   1.18602540334533E-08
     -7.08583541974662E-14  -1.20000000000000E+01  -1.20000000000000E+01   0.00000000000000E+00   4.27262310182356E-08
     -4.14230215256281E-15  -6.21980309175010E-08  -1.94718040415676E-08  -9.62220196392227E-14
      3.47094442291523E-09
      8.00000000000000E-01   8.00000000000000E-01   0.00000000000000E+00  -1.66195481780837E-13   6.33550541093900E-09
     -1.56133727105274E-12   6.33377787818617E-09   1.67066887599426E-13   0.00000000000000E+00   0.00000000000000E+00
      0.00000000000000E+00  -4.81895225721798E-13  -1.97161973550052E-16   9.13120953938015E-09   9.13072744699246E-09
     -7.08554007559741E-14  -1.20000000000000E+01  -1.20000000000000E+01   0.00000000000000E+00   3.62243745903429E-08
     -4.14194242373102E-15  -5.16888757735791E-08  -1.54645053251786E-08  -9.62114868434508E-14
      3.87087687086590E-09
      8.00000000000000E-01   8.00000000000000E-01   0.00000000000000E+00  -1.25721948572425E-13   4.80280221520439E-09
     -1.20540248616847E-12   4.80147109076965E-09   1.67051191560379E-13   0.00000000000000E+00   0.00000000000000E+00
      0.00000000000000E+00  -3.26926492192425E-13  -1.97161995449448E-16   6.05119721090479E-09   6.05087008725060E-09
     -7.08521654046366E-14  -1.20000000000000E+01  -1.20000000000000E+01   0.00000000000000E+00   2.61569063226316E-08
     -4.14151690315020E-15  -3.70092433591350E-08  -1.08523411780202E-08  -9.61990261557420E-14
      4.47077554279190E-09
      8.00000000000000E-01   8.00000000000000E-01   0.00000000000000E+00  -8.06369593841164E-14   3.18494407319102E-09
     -8.14873719314891E-13   3.18404856251232E-09   1.67036211050842E-13   0.00000000000000E+00   0.00000000000000E+00
      0.00000000000000E+00  -1.59904564214805E-13  -1.97162030662417E-16   3.30544673656284E-09   3.30528663483659E-09
     -7.08491390799050E-14  -1.20000000000000E+01  -1.20000000000000E+01   0.00000000000000E+00   1.41482133082879E-08
     -4.14110874434894E-15  -2.06375443645281E-08  -6.48933519734892E-09  -9.61870719709372E-14
      5.37062355068090E-09
      8.00000000000000E-01   8.00000000000000E-01   0.00000000000000E+00  -4.20486564042759E-14   1.75776896770217E-09
     -4.49275896521532E-13   1.75727764314924E-09   1.67025447142436E-13   0.00000000000000E+00   0.00000000000000E+00
      0.00000000000000E+00  -5.16418827859283E-14  -1.97162073070671E-16   1.57913660175393E-09   1.57908476270908E-09
     -7.08467428982495E-14  -1.20000000000000E+01  -1.20000000000000E+01   0.00000000000000E+00   5.22236996693985E-09
     -4.14082306608677E-15  -8.55872823197510E-09  -3.33636240585832E-09  -9.61787042441858E-14
      6.04550955659764E-09
      8.00000000000000E-01   8.00000000000000E-01   0.00000000000000E+00  -2.72972574870487E-14   1.14756463743319E-09
     -2.87869670625685E-13   1.14724947050508E-09   1.67021724958847E-13   0.00000000000000E+00   0.00000000000000E+00
      0.00000000000000E+00  -2.93532628435509E-14  -1.97162095955498E-16   1.06945952643214E-09   1.06942997600720E-09
     -7.08457463545970E-14  -1.20000000000000E+01  -1.20000000000000E+01   0.00000000000000E+00   3.01295992074988E-09
     -4.14072998437269E-15  -5.22963522653217E-09  -2.21667944651227E-09  -9.61759786042503E-14
      6.29859180881642E-09
      8.00000000000000E-01   8.00000000000000E-01   0.00000000000000E+00  -1.97974505078353E-14   9.79388759047576E-10
     -2.43857538615661E-13   9.79125104058452E-10   1.67020737355271E-13   0.00000000000000E+00   0.00000000000000E+00
      0.00000000000000E+00  -2.73069790977484E-14  -1.97162102936513E-16   9.36784680199762E-10   9.36757176058562E-10
     -7.08454658915754E-14  -1.20000000000000E+01  -1.20000000000000E+01   0.00000000000000E+00   2.58382975360416E-09
     -4.14070582691071E-15  -4.49970789301534E-09  -1.91588228011701E-09  -9.61752714636948E-14
      6.48840349798051E-09
      8.00000000000000E-01   8.00000000000000E-01   0.00000000000000E+00  -1.87282927921361E-14   8.69325359378513E-10
     -2.15327273851285E-13   8.69091303811869E-10   1.67020087039761E-13   0.00000000000000E+00   0.00000000000000E+00
      0.00000000000000E+00  -2.26099135146119E-14  -1.97162107654385E-16   8.48512955084954E-10   8.48490148009332E-10
     -7.08452805827531E-14  -1.20000000000000E+01  -1.20000000000000E+01   0.00000000000000E+00   2.31901972253786E-09
     -4.14068993984329E-15  -4.03659703366913E-09  -1.71758145182121E-09  -9.61748064570077E-14
      6.77312103172664E-09
      8.00000000000000E-01   8.00000000000000E-01   0.00000000000000E+00  -1.71996226220761E-14   7.26304122906931E-10
     -1.78629579389807E-13   7.26108293704919E-10   1.67019232838067E-13   0.00000000000000E+00   0.00000000000000E+00
      0.00000000000000E+00  -1.98713323700118E-14  -1.97162113962896E-16   7.31070183126247E-10   7.31050114631763E-10
     -7.08450377487847E-14  -1.20000000000000E+01  -1.20000000000000E+01   0.00000000000000E+00   1.98050242238508E-09
     -4.14066905119743E-15  -3.43765669005271E-09  -1.45715840833668E-09  -9.61741950892815E-14
      7.20019733234583E-09
      8.00000000000000E-01   8.00000000000000E-01   0.00000000000000E+00  -1.34756451616376E-14   5.53385100439730E-10
     -1.34885642102258E-13   5.53236739152466E-10   1.67018181092656E-13   0.00000000000000E+00   0.00000000000000E+00
      0.00000000000000E+00  -1.63165884873261E-14  -1.97162121815951E-16   5.83746432325739E-10   5.83729918575130E-10
     -7.08447411234077E-14  -1.20000000000000E+01  -1.20000000000000E+01   0.00000000000000E+00   1.56339326634678E-09
     -4.14064325003331E-15  -2.70035578343113E-09  -1.13696665772760E-09  -9.61734399692474E-14
      7.84081178327462E-09
      8.00000000000000E-01   8.00000000000000E-01   0.00000000000000E+00  -9.36318972026513E-15   3.66094551863036E-10
     -8.83342177307407E-14   3.65996854455585E-10   1.67017012843922E-13   0.00000000000000E+00   0.00000000000000E+00
      0.00000000000000E+00  -1.09222582993049E-14  -1.97162130384236E-16   4.16322550032767E-10   4.16311430612337E-10
     -7.08444162342457E-14  -1.20000000000000E+01  -1.20000000000000E+01   0.00000000000000E+00   1.08232420990467E-09
     -4.14061443372546E-15  -1.86462835435816E-09  -7.82308285067922E-10  -9.61725966096773E-14
      8.80173345966780E-09
      8.00000000000000E-01   8.00000000000000E-01   0.00000000000000E+00  -4.78350956176166E-15   1.94648859980605E-10
     -4.65026828494527E-14   1.94597573788194E-10   1.67015913360167E-13   0.00000000000000E+00   0.00000000000000E+00
      0.00000000000000E+00  -6.48296135349108E-15  -1.97162137252113E-16   2.55117086457706E-10   2.55110406334215E-10
     -7.08441157219020E-14  -1.20000000000000E+01  -1.20000000000000E+01   0.00000000000000E+00   6.01352535482676E-10
     -4.14058713467027E-15  -1.05105637501795E-09  -4.49707980122409E-10  -9.61717976382660E-14
      1.02431159742576E-08
      8.00000000000000E-01   8.00000000000000E-01   0.00000000000000E+00  -1.80702491413355E-15   7.32352203164413E-11
     -1.73326790900678E-14   7.32160806124371E-11   1.67015116515553E-13   0.00000000000000E+00   0.00000000000000E+00
      0.00000000000000E+00  -2.50140047602243E-15  -1.97162137765231E-16   1.36167233563881E-10   1.36164535001267E-10
     -7.08439013074462E-14  -1.20000000000000E+01  -1.20000000000000E+01   0.00000000000000E+00   2.32662848616928E-10
     -4.14056723489508E-15  -4.42039323663397E-10  -2.09380615613704E-10  -9.61712152081070E-14
      1.24051897461422E-08
      8.00000000000000E-01   8.00000000000000E-01   0.00000000000000E+00  -3.70978183351171E-16   1.53194108613655E-11
     -3.54992100254300E-15   1.53154899621796E-11   1.67014731602391E-13   0.00000000000000E+00   0.00000000000000E+00