DF-ISE text

Info {
  version   = 1.0
  type      = xyplot
  datasets  = [
    "time"
    "Ntop OuterVoltage" "Ntop InnerVoltage" "Ntop QuasiFermiPotential" "Ntop DisplacementCurrent" "Ntop eCurrent"
    "Ntop hCurrent" "Ntop TotalCurrent" "Ntop Charge" "Ptop OuterVoltage" "Ptop InnerVoltage"
    "Ptop QuasiFermiPotential" "Ptop DisplacementCurrent" "Ptop eCurrent" "Ptop hCurrent" "Ptop TotalCurrent"
    "Ptop Charge" "Pbot OuterVoltage" "Pbot InnerVoltage" "Pbot QuasiFermiPotential" "Pbot DisplacementCurrent"
    "Pbot eCurrent" "Pbot hCurrent" "Pbot TotalCurrent" "Pbot Charge" ]
  functions = [
    Time
    OuterVoltage InnerVoltage QuasiFermiPotential DisplacementCurrent eCurrent
    hCurrent TotalCurrent Charge OuterVoltage InnerVoltage
    QuasiFermiPotential DisplacementCurrent eCurrent hCurrent TotalCurrent
    Charge OuterVoltage InnerVoltage QuasiFermiPotential DisplacementCurrent
    eCurrent hCurrent TotalCurrent Charge ]
}

Data {
      5.00000000000000E-13
      8.00000000000000E-01   8.00000000000000E-01   0.00000000000000E+00   1.55396104660476E-15   7.74020071234470E-12
     -7.31577419099737E-12   4.25980482393937E-13   1.71121639905499E-13   0.00000000000000E+00   0.00000000000000E+00
      0.00000000000000E+00  -1.12540943517606E-13  -1.96738758269366E-16   1.63162920332581E-07   1.63162807594899E-07
     -4.72080767803577E-14  -1.70000000000000E+01  -1.70000000000000E+01   0.00000000000000E+00  -3.64683563735146E-13
      1.45908467330908E-11  -1.63177459738550E-07  -1.63163233575381E-07  -1.23913563125141E-13
      1.25000000000000E-12
      8.00000000000000E-01   8.00000000000000E-01   0.00000000000000E+00   1.18383642383576E-13   3.56578324526296E-11
     -3.37572288645522E-11   2.01898723046103E-12   1.71121639906021E-13   0.00000000000000E+00   0.00000000000000E+00
      0.00000000000000E+00  -7.63592252943849E-14  -1.96738758267918E-16   1.63163637783298E-07   1.63163561227334E-07
     -4.72080767799771E-14  -1.70000000000000E+01  -1.70000000000000E+01   0.00000000000000E+00  -2.14852998415611E-12
      6.73299468018898E-11  -1.63230761631381E-07  -1.63165580214564E-07  -1.23913563126044E-13
      2.37500000000000E-12
      8.00000000000000E-01   8.00000000000000E-01   0.00000000000000E+00   9.03188647583292E-13   2.99188141115879E-10
     -2.79310684189385E-10   2.07806455740774E-11   1.71121639913702E-13   0.00000000000000E+00   0.00000000000000E+00
      0.00000000000000E+00   6.99510287041542E-13  -1.96738758251051E-16   1.63171984037647E-07   1.63172683351196E-07
     -4.72080767742502E-14  -1.70000000000000E+01  -1.70000000000000E+01   0.00000000000000E+00  -2.33732054554035E-11
      5.56952056778734E-10  -1.63727042848093E-07  -1.63193463996770E-07  -1.23913563139452E-13
      4.06250000000000E-12
      8.00000000000000E-01   8.00000000000000E-01   0.00000000000000E+00   1.36809636978879E-11   4.65813940071430E-09
     -4.23720781108625E-09   4.34612553325931E-10   1.71121640142052E-13   0.00000000000000E+00   0.00000000000000E+00
      0.00000000000000E+00   9.78086489773182E-12  -1.96738757856543E-16   1.63367003371915E-07   1.63376784040074E-07
     -4.72080766007516E-14  -1.70000000000000E+01  -1.70000000000000E+01   0.00000000000000E+00  -4.93979530397385E-10
      8.44466400358367E-09  -1.71762081066586E-07  -1.63811396593400E-07  -1.23913563541300E-13
      6.59375000000000E-12
      8.00000000000000E-01   8.00000000000000E-01   0.00000000000000E+00   2.73912438450664E-10   9.72578522082530E-08
     -8.47967078781127E-08   1.27350567685910E-08   1.71121649986329E-13   0.00000000000000E+00   0.00000000000000E+00
      0.00000000000000E+00   1.96814354147984E-10  -1.96738745802095E-16   1.69318428978747E-07   1.69515243136156E-07
     -4.72080689991524E-14  -1.70000000000000E+01  -1.70000000000000E+01   0.00000000000000E+00  -1.45437823658057E-08
      1.68848890660315E-07  -3.36555408199256E-07  -1.82250299904747E-07  -1.23913580987176E-13
      1.03906250000000E-11
      8.00000000000000E-01   8.00000000000000E-01   0.00000000000000E+00   2.29988613236833E-09   8.76344892955545E-07
     -7.05782719298143E-07   1.72862059789771E-07   1.71121861343230E-13   0.00000000000000E+00   0.00000000000000E+00
      0.00000000000000E+00   1.61384698752840E-09  -1.96738587776474E-16   2.47222371676679E-07   2.48836218467468E-07
     -4.72079061782884E-14  -1.70000000000000E+01  -1.70000000000000E+01   0.00000000000000E+00  -1.97003824906564E-07
      1.40296282606929E-06  -1.62765727941997E-06  -4.21698278257240E-07  -1.23913955164941E-13
      1.60859375000000E-11
      8.00000000000000E-01   8.00000000000000E-01   0.00000000000000E+00   1.34731111930322E-09   8.04760945663222E-07
     -3.77679390781051E-07   4.28428866001474E-07   1.71122988045599E-13   0.00000000000000E+00   0.00000000000000E+00
      0.00000000000000E+00   6.84573997430728E-10  -1.96738359118053E-16   3.59380607059536E-07   3.60065180860229E-07
     -4.72070846741274E-14  -1.70000000000000E+01  -1.70000000000000E+01   0.00000000000000E+00  -4.75438951784491E-07
      7.39264968235232E-07  -1.05232006331244E-06  -7.88494046861702E-07  -1.23915903371471E-13
      2.46289062500000E-11
      8.00000000000000E-01   8.00000000000000E-01   0.00000000000000E+00   1.55392571567774E-10   5.68706193770580E-07
     -9.43330231674606E-09   5.59428284025401E-07   1.71125803682031E-13   0.00000000000000E+00   0.00000000000000E+00
      0.00000000000000E+00  -1.86215486840871E-10  -1.96738314566441E-16   3.80363925235306E-07   3.80177709551727E-07
     -4.72052862254176E-14  -1.70000000000000E+01  -1.70000000000000E+01   0.00000000000000E+00  -5.85058049072255E-07
      1.36984597115368E-09  -3.55917790476025E-07  -9.39605993577127E-07  -1.23920517456614E-13
      3.74433593750000E-11
      8.00000000000000E-01   8.00000000000000E-01   0.00000000000000E+00   1.00638442510084E-10   6.04779065952146E-07
     -7.95236101593220E-09   5.96927343378724E-07   1.71130721201077E-13   0.00000000000000E+00   0.00000000000000E+00
      0.00000000000000E+00  -1.30292732627754E-10  -1.96738388056205E-16   3.42902874963622E-07   3.42772582034256E-07
     -4.72027689455104E-14  -1.70000000000000E+01  -1.70000000000000E+01   0.00000000000000E+00  -5.75027399525611E-07
     -5.01673845214372E-15  -3.64672520870629E-07  -9.39699925412979E-07  -1.23927952255567E-13
      5.66650390625000E-11
      8.00000000000000E-01   8.00000000000000E-01   0.00000000000000E+00   6.28391473943360E-11   6.38504288974488E-07
     -6.88590360639898E-09   6.31681224515483E-07   1.71138585687496E-13   0.00000000000000E+00   0.00000000000000E+00
      0.00000000000000E+00  -9.21230940419014E-11  -1.96738465880040E-16   3.02626770844536E-07   3.02534647553756E-07
     -4.71997539705065E-14  -1.70000000000000E+01  -1.70000000000000E+01   0.00000000000000E+00  -5.56893944186208E-07
     -5.01723395347218E-15  -3.77321922865799E-07  -9.34215872069241E-07  -1.23938831716990E-13
      8.54975585937500E-11
      8.00000000000000E-01   8.00000000000000E-01   0.00000000000000E+00   3.36468962032526E-11   6.66241913861667E-07
     -5.54653011622269E-09   6.60729030641648E-07   1.71150919251397E-13   0.00000000000000E+00   0.00000000000000E+00
      0.00000000000000E+00  -6.20153253609553E-11  -1.96738542500167E-16   2.60952107665400E-07   2.60890092143301E-07
     -4.71964302478193E-14  -1.70000000000000E+01  -1.70000000000000E+01   0.00000000000000E+00  -5.29255785424614E-07
     -5.01773421648992E-15  -3.92363332342601E-07  -9.21619122784950E-07  -1.23954489003578E-13
      1.28746337890625E-10
      8.00000000000000E-01   8.00000000000000E-01   0.00000000000000E+00   1.31735277872800E-11   6.83569572852077E-07
     -4.00764423778323E-09   6.79575102142081E-07   1.71169779858279E-13   0.00000000000000E+00   0.00000000000000E+00
      0.00000000000000E+00  -4.03264757604707E-11  -1.96738605713571E-16   2.19466304185466E-07   2.19425977512967E-07
     -4.71932503463912E-14  -1.70000000000000E+01  -1.70000000000000E+01   0.00000000000000E+00  -4.90323389798647E-07
     -5.01839532615268E-15  -4.08677684838006E-07  -8.99001079655048E-07  -1.23976529511889E-13
      1.93619506835937E-10
      8.00000000000000E-01   8.00000000000000E-01   0.00000000000000E+00   6.85980976829232E-13   6.86704391303704E-07
     -2.45926582062547E-09   6.84245811464055E-07   1.71197759567808E-13   0.00000000000000E+00   0.00000000000000E+00
      0.00000000000000E+00  -2.71795477391420E-11  -1.96738634547177E-16   1.78500443159897E-07   1.78473263415419E-07
     -4.71911093115414E-14  -1.70000000000000E+01  -1.70000000000000E+01   0.00000000000000E+00  -4.38930559521040E-07
     -5.01927717648766E-15  -4.23788510339156E-07  -8.62719074879474E-07  -1.24006650256267E-13
      2.42274383544922E-10
      8.00000000000000E-01   8.00000000000000E-01   0.00000000000000E+00  -2.99331466193543E-12   6.81655186705363E-07
     -1.71232071837944E-09   6.79939872672321E-07   1.71218161039759E-13   0.00000000000000E+00   0.00000000000000E+00
      0.00000000000000E+00  -2.36189676918348E-11  -1.96738632176779E-16   1.55076790316810E-07   1.55053171152379E-07
     -4.71909913249239E-14  -1.70000000000000E+01  -1.70000000000000E+01   0.00000000000000E+00  -4.04787272640869E-07
     -5.01987466234649E-15  -4.30205766163959E-07  -8.34993043824703E-07  -1.24027169714835E-13
      3.15256698608398E-10
      8.00000000000000E-01   8.00000000000000E-01   0.00000000000000E+00  -5.50136441397587E-12   6.70320492748223E-07
     -9.96956661650472E-10   6.69318034722159E-07   1.71247691751895E-13   0.00000000000000E+00   0.00000000000000E+00
      0.00000000000000E+00  -2.14897969261266E-11  -1.96738644142587E-16   1.23859213745538E-07   1.23837723751873E-07
     -4.71927009794172E-14  -1.70000000000000E+01  -1.70000000000000E+01   0.00000000000000E+00  -3.57966150109707E-07
     -5.02068452655212E-15  -4.35189603343642E-07  -7.93155758474033E-07  -1.24054990772478E-13
      3.69993434906006E-10
      8.00000000000000E-01   8.00000000000000E-01   0.00000000000000E+00  -6.43438476355034E-12   6.60517608117024E-07
     -6.70488139358315E-10   6.59840685592902E-07   1.71269029488617E-13   0.00000000000000E+00   0.00000000000000E+00
      0.00000000000000E+00  -2.07156750948418E-11  -1.96738698250100E-16   1.01894069101568E-07   1.01873353229735E-07
     -4.71953467302082E-14  -1.70000000000000E+01  -1.70000000000000E+01   0.00000000000000E+00  -3.25133298147146E-07
     -5.02122874094489E-15  -4.36580735654261E-07  -7.61714038822635E-07  -1.24073682758409E-13
      4.11045987129211E-10
      8.00000000000000E-01   8.00000000000000E-01   0.00000000000000E+00  -7.05169838015383E-12   6.52708815161782E-07
     -5.00765668735981E-10   6.52200997794665E-07   1.71284599515959E-13   0.00000000000000E+00   0.00000000000000E+00
      0.00000000000000E+00  -2.00821670654667E-11  -1.96738779967551E-16   8.59753645688337E-08   8.59552822050295E-08
     -4.71980585079254E-14  -1.70000000000000E+01  -1.70000000000000E+01   0.00000000000000E+00  -3.01345238262455E-07
     -5.02160315815084E-15  -4.36811036715637E-07  -7.38156279999695E-07  -1.24086541008033E-13
      4.72624815464020E-10
      8.00000000000000E-01   8.00000000000000E-01   0.00000000000000E+00  -8.22059807089122E-12   6.39968741225708E-07
     -3.25563951379779E-10   6.39634956676257E-07   1.71307264699506E-13   0.00000000000000E+00   0.00000000000000E+00
      0.00000000000000E+00  -1.86231355950757E-11  -1.96738984489249E-16   6.33174912543358E-08   6.32988679220017E-08
     -4.72032392305750E-14  -1.70000000000000E+01  -1.70000000000000E+01   0.00000000000000E+00  -2.66610485705843E-07
     -5.02211233129866E-15  -4.36323333870303E-07  -7.02933824598259E-07  -1.24104025468931E-13
      5.18808936715126E-10
      8.00000000000000E-01   8.00000000000000E-01   0.00000000000000E+00  -9.44865065972872E-12   6.29188504744035E-07
     -2.38161678401329E-10   6.28940894414974E-07   1.71323697799515E-13   0.00000000000000E+00   0.00000000000000E+00
      0.00000000000000E+00  -1.69453863319470E-11  -1.96739207418630E-16   4.77308680873826E-08   4.77139225043114E-08
     -4.72079480476028E-14  -1.70000000000000E+01  -1.70000000000000E+01   0.00000000000000E+00  -2.41145660924640E-07
     -5.02245378393260E-15  -4.35509150972192E-07  -6.76654816919286E-07  -1.24115749751912E-13
      5.88085118591785E-10
      8.00000000000000E-01   8.00000000000000E-01   0.00000000000000E+00  -1.20357682651618E-11   6.09887680732578E-07
     -1.51275829119241E-10   6.09724369135194E-07   1.71347318303505E-13   0.00000000000000E+00   0.00000000000000E+00
      0.00000000000000E+00  -1.32817892986273E-11  -1.96739650752408E-16   2.78561724986681E-08   2.78428905126299E-08
     -4.72161623108361E-14  -1.70000000000000E+01  -1.70000000000000E+01   0.00000000000000E+00  -2.03705412699152E-07
     -5.02290249036574E-15  -4.33861841925771E-07  -6.37567259647825E-07  -1.24131155992669E-13
      6.91999391406774E-10
      8.00000000000000E-01   8.00000000000000E-01   0.00000000000000E+00  -1.74136370547116E-11   5.70783774584150E-07
     -7.99342708787811E-11   5.70686426676217E-07   1.71379842397323E-13   0.00000000000000E+00   0.00000000000000E+00
      0.00000000000000E+00  -5.39872246899343E-12  -1.96740480941401E-16   9.41729444430437E-09   9.41189552509490E-09
     -4.72303590044409E-14  -1.70000000000000E+01  -1.70000000000000E+01   0.00000000000000E+00  -1.49221165202673E-07
     -5.02343631566819E-15  -4.30877151975204E-07  -5.80098322201313E-07  -1.24149483392881E-13
      7.69935096018016E-10
      8.00000000000000E-01   8.00000000000000E-01   0.00000000000000E+00  -2.20197590979448E-11   5.31687120371989E-07
     -5.23881084757730E-11   5.31612712504415E-07   1.71401293202038E-13   0.00000000000000E+00   0.00000000000000E+00
      0.00000000000000E+00   1.65750442486504E-12  -1.96741069360035E-16   6.79418255775330E-09   6.79583986543710E-09
     -4.72417159852685E-14  -1.70000000000000E+01  -1.70000000000000E+01   0.00000000000000E+00  -1.09949679730739E-07
     -5.02373036088534E-15  -4.28458867615383E-07  -5.38408552369852E-07  -1.24159577216768E-13
      8.86838652934879E-10
      8.00000000000000E-01   8.00000000000000E-01   0.00000000000000E+00  -2.78531283903300E-11   4.57676009932352E-07
     -3.02308069532597E-11   4.57617925997008E-07   1.71427200125516E-13   0.00000000000000E+00   0.00000000000000E+00
      0.00000000000000E+00   1.16170591663639E-11  -1.96740992255439E-16   2.19897725925208E-08   2.20013894549461E-08
     -4.72580189900741E-14  -1.70000000000000E+01  -1.70000000000000E+01   0.00000000000000E+00  -5.48244392131515E-08
     -5.02401022866398E-15  -4.24794871214793E-07  -4.79619315451955E-07  -1.24169181135441E-13
      9.74516320622526E-10
      8.00000000000000E-01   8.00000000000000E-01   0.00000000000000E+00  -3.01692178542922E-11   3.93487800202732E-07
     -2.16689757394596E-11   3.93435962009138E-07   1.71440833720692E-13   0.00000000000000E+00   0.00000000000000E+00
      0.00000000000000E+00   1.70014900455792E-11  -1.96738872458728E-16   4.61451829555924E-08   4.61621842488991E-08
     -4.72684972213493E-14  -1.70000000000000E+01  -1.70000000000000E+01   0.00000000000000E+00  -1.75019941501061E-08
     -5.02410229899269E-15  -4.22096147083828E-07  -4.39598146258037E-07  -1.24172336499344E-13
      1.10603282215400E-09
      8.00000000000000E-01   8.00000000000000E-01   0.00000000000000E+00  -2.93176058670738E-11   2.94859990572685E-07
     -1.45031014561049E-11   2.94816169865362E-07   1.71451125475610E-13   0.00000000000000E+00   0.00000000000000E+00
      0.00000000000000E+00   2.00487396691626E-11  -1.96727072858974E-16   9.32095566140982E-08   9.32296051570403E-08
     -4.72796807713644E-14  -1.70000000000000E+01  -1.70000000000000E+01   0.00000000000000E+00   3.01420424087834E-08
     -5.02407667124039E-15  -4.18187812407110E-07  -3.88045775022403E-07  -1.24171444704246E-13
      1.20467019830260E-09
      8.00000000000000E-01   8.00000000000000E-01   0.00000000000000E+00  -2.58225315725681E-11   2.26877227729634E-07
     -1.14827833628993E-11   2.26839922414699E-07   1.71451122049685E-13   0.00000000000000E+00   0.00000000000000E+00
      0.00000000000000E+00   1.86985798383783E-11  -1.96705907805950E-16   1.29749667131184E-07   1.29768365514317E-07
     -4.72840867259224E-14  -1.70000000000000E+01  -1.70000000000000E+01   0.00000000000000E+00   5.87347614822243E-08
     -5.02394857416549E-15  -4.15343044387290E-07  -3.56608287929015E-07  -1.24167035323762E-13
      1.35262626252550E-09
      8.00000000000000E-01   8.00000000000000E-01   0.00000000000000E+00  -1.85701608561878E-11   1.45175888198771E-07
     -8.63874856214554E-12   1.45148679289353E-07   1.71440783355454E-13   0.00000000000000E+00   0.00000000000000E+00
      0.00000000000000E+00   1.34212947402077E-11  -1.96640382557929E-16   1.75129248913323E-07   1.75142670011423E-07
     -4.72848816158186E-14  -1.70000000000000E+01  -1.70000000000000E+01   0.00000000000000E+00   9.07293803662854E-08
     -5.02362488966107E-15  -4.11020724643436E-07  -3.20291349300775E-07  -1.24155901739636E-13
      1.46359331069268E-09
      8.00000000000000E-01   8.00000000000000E-01   0.00000000000000E+00  -1.32042502002577E-11   1.01614463455958E-07
     -7.24079392980880E-12   1.01594018411828E-07   1.71426808155306E-13   0.00000000000000E+00   0.00000000000000E+00
      0.00000000000000E+00   8.79230858670257E-12  -1.96557042413241E-16   1.98478785488907E-07   1.98487577600937E-07
     -4.72819257753839E-14  -1.70000000000000E+01  -1.70000000000000E+01   0.00000000000000E+00   1.07418479448070E-07
     -5.02330444920156E-15  -4.07500070437530E-07  -3.00081596012765E-07  -1.24144882379922E-13
      1.63004388294345E-09
      8.00000000000000E-01   8.00000000000000E-01   0.00000000000000E+00  -7.14624329332611E-12   6.02058395065222E-08
     -5.73215416937226E-12   6.01929611090595E-08   1.71399804304341E-13   0.00000000000000E+00   0.00000000000000E+00
      0.00000000000000E+00   3.20357969236790E-12  -1.96374417824972E-16   2.17087052898259E-07   2.17090256281576E-07
     -4.72742275195045E-14  -1.70000000000000E+01  -1.70000000000000E+01   0.00000000000000E+00   1.23799137085119E-07
     -5.02274300942473E-15  -4.01082349453012E-07  -2.77283217390636E-07  -1.24125576784836E-13
      1.75488181213153E-09
      8.00000000000000E-01   8.00000000000000E-01   0.00000000000000E+00  -4.32105543905668E-12   4.26564741376489E-08
     -4.88831839692957E-12   4.26472647638129E-08   1.71376894952307E-13   0.00000000000000E+00   0.00000000000000E+00
      0.00000000000000E+00   5.08738392635425E-13  -1.96201960245401E-16   2.21325804511105E-07   2.21326313053296E-07
     -4.72672352921355E-14  -1.70000000000000E+01  -1.70000000000000E+01   0.00000000000000E+00   1.30887084380617E-07
     -5.02228010928857E-15  -3.94860657175446E-07  -2.63973577817109E-07  -1.24109659660172E-13
      1.94213870591364E-09
      8.00000000000000E-01   8.00000000000000E-01   0.00000000000000E+00  -2.06392918497013E-12   2.81191506906266E-08
     -3.89628283800634E-12   2.81131904786036E-08   1.71341365549950E-13   0.00000000000000E+00   0.00000000000000E+00
      0.00000000000000E+00  -1.58920104167389E-12  -1.95923044735116E-16   2.19083313188885E-07   2.19081723791920E-07
     -4.72566707748398E-14  -1.70000000000000E+01  -1.70000000000000E+01   0.00000000000000E+00   1.35151606082703E-07
     -5.02155410303039E-15  -3.82346515331672E-07  -2.47194914270524E-07  -1.24084694775111E-13
      2.08258137625022E-09
      8.00000000000000E-01   8.00000000000000E-01   0.00000000000000E+00  -1.30558644530628E-12   2.22229757639602E-08
     -3.30560496432045E-12   2.22183645725506E-08   1.71315111478480E-13   0.00000000000000E+00   0.00000000000000E+00
      0.00000000000000E+00  -2.17662983643543E-12  -1.95722646485512E-16   2.13973638888421E-07   2.13971462062862E-07
     -4.72493348393180E-14  -1.70000000000000E+01  -1.70000000000000E+01   0.00000000000000E+00   1.33955868863410E-07
     -5.02100395397701E-15  -3.70145690477819E-07  -2.36189826635413E-07  -1.24065776639162E-13
      2.29324538175510E-09
      8.00000000000000E-01   8.00000000000000E-01   0.00000000000000E+00  -7.92788163348180E-13   1.66636229780090E-08
     -2.59110086459257E-12   1.66602390889811E-08   1.71278163782708E-13   0.00000000000000E+00   0.00000000000000E+00
      0.00000000000000E+00  -2.32494873406072E-12  -1.95468455433062E-16   2.04842068877786E-07   2.04839743733583E-07
     -4.72398380273356E-14  -1.70000000000000E+01  -1.70000000000000E+01   0.00000000000000E+00   1.26091229734919E-07
     -5.02020566312685E-15  -3.47591207537278E-07  -2.21499982822565E-07  -1.24038325755372E-13
      2.45124338588376E-09
      8.00000000000000E-01   8.00000000000000E-01   0.00000000000000E+00  -6.19356558156044E-13   1.37793656262235E-08
     -2.16119003700518E-12   1.37765850796284E-08   1.71253117444463E-13   0.00000000000000E+00   0.00000000000000E+00
      0.00000000000000E+00  -2.16136149294429E-12  -1.95319880083650E-16   1.98073444744158E-07   1.98071283187345E-07
     -4.72339569441644E-14  -1.70000000000000E+01  -1.70000000000000E+01   0.00000000000000E+00   1.16277848060970E-07
     -5.01964830324979E-15  -3.28125711308294E-07  -2.11847868266973E-07  -1.24019160500299E-13
      2.56974188898025E-09
      8.00000000000000E-01   8.00000000000000E-01   0.00000000000000E+00  -5.34090164666571E-13   1.19962933412229E-08
     -1.88637952541785E-12   1.19938728715328E-08   1.71236112298739E-13   0.00000000000000E+00   0.00000000000000E+00
      0.00000000000000E+00  -1.97922024775185E-12  -1.95230338559725E-16   1.93395488016127E-07   1.93393508600649E-07
     -4.72302072957237E-14  -1.70000000000000E+01  -1.70000000000000E+01   0.00000000000000E+00   1.07360328238543E-07
     -5.01926279275280E-15  -3.12747704691462E-07  -2.05387381472181E-07  -1.24005905003015E-13
      2.74748964362499E-09
      8.00000000000000E-01   8.00000000000000E-01   0.00000000000000E+00  -4.34742045662982E-13   9.74681101837255E-09
     -1.53736422662846E-12   9.74483891210026E-09   1.71213649008426E-13   0.00000000000000E+00   0.00000000000000E+00
      0.00000000000000E+00  -1.67385368061261E-12  -1.95124553753196E-16   1.87206503284518E-07   1.87204829235712E-07
     -4.72255259423867E-14  -1.70000000000000E+01  -1.70000000000000E+01   0.00000000000000E+00   9.26408693285211E-08
     -5.01874561077645E-15  -2.89590532457588E-07  -1.96949668147813E-07  -1.23988123066040E-13
      2.88080045960855E-09
      8.00000000000000E-01   8.00000000000000E-01   0.00000000000000E+00  -3.74265091806551E-13   8.33369013445657E-09
     -1.31824931063062E-12   8.33199762005414E-09   1.71199199573933E-13   0.00000000000000E+00   0.00000000000000E+00
      0.00000000000000E+00  -1.44311445521995E-12  -1.95063476168925E-16   1.83247143441088E-07   1.83245700131569E-07
     -4.72226683621682E-14  -1.70000000000000E+01  -1.70000000000000E+01   0.00000000000000E+00   8.12780001817576E-08
     -5.01840844762424E-15  -2.72855692914972E-07  -1.91577697751623E-07  -1.23976531211763E-13
      3.08076668358388E-09
      8.00000000000000E-01   8.00000000000000E-01   0.00000000000000E+00  -2.97955684795660E-13   6.57280255913844E-09
     -1.04560135058253E-12   6.57145900210306E-09   1.71181163276351E-13   0.00000000000000E+00   0.00000000000000E+00
      0.00000000000000E+00  -1.12567000340847E-12  -1.94994160765114E-16   1.78357260697159E-07   1.78356134832162E-07
     -4.72192436158783E-14  -1.70000000000000E+01  -1.70000000000000E+01   0.00000000000000E+00   6.49913059954282E-08
     -5.01798343280001E-15  -2.49918894811710E-07  -1.84927593834265E-07  -1.23961919660473E-13
      3.38071601954688E-09
      8.00000000000000E-01   8.00000000000000E-01   0.00000000000000E+00  -2.09114126087029E-13   4.58498243129334E-09
     -7.36613163245737E-13   4.58403670400401E-09   1.71161202215028E-13   0.00000000000000E+00   0.00000000000000E+00
      0.00000000000000E+00  -7.41001719659322E-13  -1.94927761599618E-16   1.73048583351620E-07   1.73047842154972E-07
     -4.72155981271646E-14  -1.70000000000000E+01  -1.70000000000000E+01   0.00000000000000E+00   4.42540326396581E-08
     -5.01750883270165E-15  -2.21885906481126E-07  -1.77631878858976E-07  -1.23945604087864E-13
      3.83064002349138E-09
      8.00000000000000E-01   8.00000000000000E-01   0.00000000000000E+00  -1.20447882291923E-13   2.66077508420493E-09
     -4.32544493519643E-13   2.66022209182912E-09   1.71142988845736E-13   0.00000000000000E+00   0.00000000000000E+00
      0.00000000000000E+00  -3.72980995926459E-13  -1.94885504221876E-16   1.68354532638435E-07   1.68354159462554E-07
     -4.72123258069017E-14  -1.70000000000000E+01  -1.70000000000000E+01   0.00000000000000E+00   2.31440935443399E-08
     -5.01707421162512E-15  -1.94158470081648E-07  -1.71014381554383E-07  -1.23930663038834E-13
      4.50552602940813E-09
      8.00000000000000E-01   8.00000000000000E-01   0.00000000000000E+00  -5.18599704631016E-14   1.17535928295686E-09
     -1.90958826888904E-13   1.17511646415951E-09   1.71130435484587E-13   0.00000000000000E+00   0.00000000000000E+00
      0.00000000000000E+00  -1.29298829972867E-13  -1.94897568960287E-16   1.65263643723113E-07   1.65263514229385E-07
     -4.72099714150754E-14  -1.70000000000000E+01  -1.70000000000000E+01   0.00000000000000E+00   8.29449445433820E-09
     -5.01677752187976E-15  -1.74733120131106E-07  -1.66438630693545E-07  -1.23920464069512E-13
      5.51785503828325E-09
      8.00000000000000E-01   8.00000000000000E-01   0.00000000000000E+00  -1.46430905239813E-14   3.38576600774514E-10
     -5.26272035465539E-14   3.38509330480444E-10   1.71124239166975E-13   0.00000000000000E+00   0.00000000000000E+00
      0.00000000000000E+00  -3.35823372146004E-14  -1.94994197294186E-16   1.63800759556117E-07   1.63800725778785E-07
     -4.72086588378140E-14  -1.70000000000000E+01  -1.70000000000000E+01   0.00000000000000E+00   2.06971785822834E-09
     -5.01663538323193E-15  -1.66208947950859E-07  -1.64139235109266E-07  -1.23915580329161E-13
      7.03634855159594E-09
      8.00000000000000E-01   8.00000000000000E-01   0.00000000000000E+00  -1.87688546700305E-15   4.09435976447351E-11
     -5.65398323472558E-15   4.09360667760334E-11   1.71122014629282E-13   0.00000000000000E+00   0.00000000000000E+00
      0.00000000000000E+00  -6.43493517155016E-15  -1.95191917829231E-16   1.63260340909012E-07   1.63260334278885E-07
     -4.72081486453456E-14  -1.70000000000000E+01  -1.70000000000000E+01   0.00000000000000E+00   3.73638278532752E-10
     -5.01658542835535E-15  -1.63674903607609E-07  -1.63301270345662E-07  -1.23913865983936E-13
      8.17521868658045E-09
      8.00000000000000E-01   8.00000000000000E-01   0.00000000000000E+00  -4.08801197170261E-16   8.92822353044082E-12
     -1.25299378627975E-15   8.92656173545737E-12   1.71121710843504E-13   0.00000000000000E+00   0.00000000000000E+00
      0.00000000000000E+00  -1.24345137374145E-15  -1.95341686397484E-16   1.63180505492065E-07   1.63180504053272E-07
     -4.72080890483147E-14  -1.70000000000000E+01  -1.70000000000000E+01   0.00000000000000E+00   8.15603113682219E-11
     -5.01657831461504E-15  -1.63270985909797E-07  -1.63189430615008E-07  -1.23913621795188E-13
      9.88352388905722E-09
      8.00000000000000E-01   8.00000000000000E-01   0.00000000000000E+00  -1.22836050452273E-17   7.34827288541132E-13
     -5.81528501890082E-17   7.34756852085897E-13   1.71121641200506E-13   0.00000000000000E+00   0.00000000000000E+00
      0.00000000000000E+00  -1.25961349324766E-17  -1.95542349108520E-16   1.63163183599780E-07   1.63163183391641E-07
     -4.72080761819129E-14  -1.70000000000000E+01  -1.70000000000000E+01   0.00000000000000E+00  -1.12387281902093E-13
     -5.01657666273994E-15  -1.63163800744635E-07  -1.63163918148494E-07  -1.23913565018593E-13
      1.11647527909148E-08
      8.00000000000000E-01   8.00000000000000E-01   0.00000000000000E+00  -5.14922964854154E-18   3.38233313422779E-13
      6.90491770640943E-18   3.38235069110837E-13   1.71121639829756E-13   0.00000000000000E+00   0.00000000000000E+00
      0.00000000000000E+00   1.18947363599956E-16  -1.95671224069760E-16   1.63162904728991E-07   1.63162904652268E-07
     -4.72080757309046E-14  -1.70000000000000E+01  -1.70000000000000E+01   0.00000000000000E+00   1.14066982385732E-12
     -5.01657663556827E-15  -1.63164378540585E-07  -1.63163242887337E-07  -1.23913564098852E-13
      1.30865961437012E-08
      8.00000000000000E-01   8.00000000000000E-01   0.00000000000000E+00   2.99955209338273E-18   1.99386467980038E-13
      2.05058369018921E-17   1.99409973369034E-13   1.71121638848255E-13   0.00000000000000E+00   0.00000000000000E+00
      0.00000000000000E+00  -4.20004890666262E-17  -1.95832748121215E-16   1.63162599506297E-07   1.63162599268464E-07
     -4.72080757166904E-14  -1.70000000000000E+01  -1.70000000000000E+01   0.00000000000000E+00   3.54886893046162E-15
     -5.01657660739352E-15  -1.63162797210730E-07  -1.63162798678438E-07  -1.23913563131565E-13
      1.59693611728807E-08
      8.00000000000000E-01   8.00000000000000E-01   0.00000000000000E+00  -7.91078724647079E-18   1.67425060229267E-13
      2.07220954762841E-17   1.67437871537497E-13   1.71121639121634E-13   0.00000000000000E+00   0.00000000000000E+00
      0.00000000000000E+00   5.82235900839451E-18  -1.96018645202073E-16   1.63162636182802E-07   1.63162635992606E-07
     -4.72080759604311E-14  -1.70000000000000E+01  -1.70000000000000E+01   0.00000000000000E+00  -1.00524483321025E-15
     -5.01657660826674E-15  -1.63162797408655E-07  -1.63162803430477E-07  -1.23913563161204E-13
      2.02935087166500E-08
      8.00000000000000E-01   8.00000000000000E-01   0.00000000000000E+00  -6.36995950498372E-17   1.38040826521514E-13
      2.07314416016264E-17   1.37997858368066E-13   1.71121639340678E-13   0.00000000000000E+00   0.00000000000000E+00