DF-ISE text

Info {
  version   = 1.0
  type      = xyplot
  datasets  = [
    "time"
    "Ntop OuterVoltage" "Ntop InnerVoltage" "Ntop QuasiFermiPotential" "Ntop DisplacementCurrent" "Ntop eCurrent"
    "Ntop hCurrent" "Ntop TotalCurrent" "Ntop Charge" "Ptop OuterVoltage" "Ptop InnerVoltage"
    "Ptop QuasiFermiPotential" "Ptop DisplacementCurrent" "Ptop eCurrent" "Ptop hCurrent" "Ptop TotalCurrent"
    "Ptop Charge" "Pbot OuterVoltage" "Pbot InnerVoltage" "Pbot QuasiFermiPotential" "Pbot DisplacementCurrent"
    "Pbot eCurrent" "Pbot hCurrent" "Pbot TotalCurrent" "Pbot Charge" ]
  functions = [
    Time
    OuterVoltage InnerVoltage QuasiFermiPotential DisplacementCurrent eCurrent
    hCurrent TotalCurrent Charge OuterVoltage InnerVoltage
    QuasiFermiPotential DisplacementCurrent eCurrent hCurrent TotalCurrent
    Charge OuterVoltage InnerVoltage QuasiFermiPotential DisplacementCurrent
    eCurrent hCurrent TotalCurrent Charge ]
}

Data {
      5.00000000000000E-13
      8.00000000000000E-01   8.00000000000000E-01   0.00000000000000E+00   6.80664836688641E-15   6.97282115781276E-12
     -6.60134109954817E-12   3.78286706631475E-13   1.67014632698001E-13   0.00000000000000E+00   0.00000000000000E+00
      0.00000000000000E+00  -1.15118175013819E-13  -1.97161987554660E-16   6.32887177542247E-11   6.31734024172234E-11
     -7.08437734486210E-14  -1.20000000000000E+01  -1.20000000000000E+01   0.00000000000000E+00  -2.44519879994841E-13
      1.31663454784408E-11  -7.64735147223009E-11  -6.35516891238550E-11  -9.61708592493795E-14
      1.25000000000000E-12
      8.00000000000000E-01   8.00000000000000E-01   0.00000000000000E+00   7.89012111510376E-14   3.18080662594797E-11
     -3.04606224731125E-11   1.42634499751822E-12   1.67014632698330E-13   0.00000000000000E+00   0.00000000000000E+00
      0.00000000000000E+00  -9.02243058389881E-14  -1.97161987553462E-16   6.38826726603907E-11   6.37922511925642E-11
     -7.08437734483211E-14  -1.20000000000000E+01  -1.20000000000000E+01   0.00000000000000E+00  -1.49804148541450E-12
      6.07551428068831E-11  -1.24475697511551E-10  -6.52185961900823E-11  -9.61708592500087E-14
      2.37500000000000E-12
      8.00000000000000E-01   8.00000000000000E-01   0.00000000000000E+00   5.82503962201356E-13   2.65303102877861E-10
     -2.52034248295374E-10   1.38513585446890E-11   1.67014632703128E-13   0.00000000000000E+00   0.00000000000000E+00
      0.00000000000000E+00   5.81159886732444E-13  -1.97161987540127E-16   7.04931848425055E-11   7.10741475672504E-11
     -7.08437734437591E-14  -1.20000000000000E+01  -1.20000000000000E+01   0.00000000000000E+00  -1.63143935154734E-11
      5.02562593614990E-10  -5.71173706211456E-10  -8.49255061119395E-11  -9.61708592593683E-14
      4.06250000000000E-12
      8.00000000000000E-01   8.00000000000000E-01   0.00000000000000E+00   8.77457019187413E-12   4.10148589994978E-09
     -3.82341798761605E-09   2.86842482525609E-10   1.67014632844772E-13   0.00000000000000E+00   0.00000000000000E+00
      0.00000000000000E+00   7.88152603336509E-12  -1.97161987224551E-16   2.26774684548426E-10   2.34656013419804E-10
     -7.08437733050034E-14  -1.20000000000000E+01  -1.20000000000000E+01   0.00000000000000E+00  -3.44713296369319E-10
      7.61999017080581E-09  -7.79677537038190E-09  -5.21498495945409E-10  -9.61708595397675E-14
      6.59375000000000E-12
      8.00000000000000E-01   8.00000000000000E-01   0.00000000000000E+00   1.74664485990534E-10   8.47050207729769E-08
     -7.65157797422269E-08   8.36390551674057E-09   1.67014638903343E-13   0.00000000000000E+00   0.00000000000000E+00
      0.00000000000000E+00   1.59752984551132E-10  -1.97161977525310E-16   5.02412538578101E-09   5.18387817317016E-09
     -7.08437671904412E-14  -1.20000000000000E+01  -1.20000000000000E+01   0.00000000000000E+00  -1.01495077495126E-08
      1.52359741573717E-07  -1.55758017514115E-07  -1.35477836899107E-08  -9.61708717129013E-14
      1.03906250000000E-11
      8.00000000000000E-01   8.00000000000000E-01   0.00000000000000E+00   1.46108382072435E-09   7.48505928662503E-07
     -6.36858668618484E-07   1.13108343864743E-07   1.67014768171495E-13   0.00000000000000E+00   0.00000000000000E+00
      0.00000000000000E+00   1.32171871938768E-09  -1.97161849354240E-16   6.83262776063426E-08   6.96479961285684E-08
     -7.08436352321065E-14  -1.20000000000000E+01  -1.20000000000000E+01   0.00000000000000E+00  -1.37561051552445E-07
      1.26595473804815E-06  -1.31115002648901E-06  -1.82756339993312E-07  -9.61711329393884E-14
      1.60859375000000E-11
      8.00000000000000E-01   8.00000000000000E-01   0.00000000000000E+00   8.57414250199608E-10   6.19024559720859E-07
     -3.40796881524142E-07   2.79085092446917E-07   1.67015453154804E-13   0.00000000000000E+00   0.00000000000000E+00
      0.00000000000000E+00   5.92607827279304E-10  -1.97161657384377E-16   1.62679876165392E-07   1.63272483795510E-07
     -7.08429581986373E-14  -1.20000000000000E+01  -1.20000000000000E+01   0.00000000000000E+00  -3.32629003732598E-07
      6.67071124225724E-07  -7.76799696735553E-07  -4.42357576242427E-07  -9.61724949561653E-14
      2.46289062500000E-11
      8.00000000000000E-01   8.00000000000000E-01   0.00000000000000E+00   1.19548679274263E-10   3.74988854540694E-07
     -8.51247003448171E-09   3.66595933185486E-07   1.67017176495502E-13   0.00000000000000E+00   0.00000000000000E+00
      0.00000000000000E+00  -1.37906414419679E-10  -1.97161612668804E-16   1.83979279095414E-07   1.83841372483833E-07
     -7.08414460936745E-14  -1.20000000000000E+01  -1.20000000000000E+01   0.00000000000000E+00  -4.11094776635049E-07
      1.23607248150430E-09  -1.40578601515775E-07  -5.50437305669319E-07  -9.61757304018276E-14
      3.74433593750000E-11
      8.00000000000000E-01   8.00000000000000E-01   0.00000000000000E+00   8.80807784361517E-11   4.05055922510374E-07
     -7.17623987369313E-09   3.97967763415117E-07   1.67020258704140E-13   0.00000000000000E+00   0.00000000000000E+00
      0.00000000000000E+00  -1.07040157729858E-10  -1.97161669986771E-16   1.54791461109034E-07   1.54684420754143E-07
     -7.08392843830681E-14  -1.20000000000000E+01  -1.20000000000000E+01   0.00000000000000E+00  -4.07117217188559E-07
     -4.04933527329228E-15  -1.45534962931364E-07  -5.52652184169259E-07  -9.61809743210720E-14
      5.66650390625000E-11
      8.00000000000000E-01   8.00000000000000E-01   0.00000000000000E+00   6.21753459319242E-11   4.37465301235951E-07
     -6.21415226357451E-09   4.31313324318309E-07   1.67025371662872E-13   0.00000000000000E+00   0.00000000000000E+00
      0.00000000000000E+00  -8.09640748271497E-11  -1.97161737137060E-16   1.20657720843267E-07   1.20576756571278E-07
     -7.08366532748951E-14  -1.20000000000000E+01  -1.20000000000000E+01   0.00000000000000E+00  -3.98543643806396E-07
     -4.09093281186276E-15  -1.53346432992257E-07  -5.51890080889586E-07  -9.61887183879770E-14
      8.54975585937500E-11
      8.00000000000000E-01   8.00000000000000E-01   0.00000000000000E+00   3.80302237569708E-11   4.68641535042138E-07
     -5.00597609739166E-09   4.63673589168503E-07   1.67033742784699E-13   0.00000000000000E+00   0.00000000000000E+00
      0.00000000000000E+00  -5.61292370999002E-11  -1.97161810680477E-16   8.34922603817961E-08   8.34361309475344E-08
     -7.08337383076931E-14  -1.20000000000000E+01  -1.20000000000000E+01   0.00000000000000E+00  -3.84255371533565E-07
     -4.11909968205256E-15  -1.62854344463374E-07  -5.47109720116039E-07  -9.62000044770057E-14
      1.28746337890625E-10
      8.00000000000000E-01   8.00000000000000E-01   0.00000000000000E+00   1.79411595561719E-11   4.93071635687653E-07
     -3.61790439289861E-09   4.89471672454310E-07   1.67047120426080E-13   0.00000000000000E+00   0.00000000000000E+00
      0.00000000000000E+00  -3.50216568551109E-11  -1.97161885144028E-16   4.65235134244303E-08   4.64884915704133E-08
     -7.08309722010400E-14  -1.20000000000000E+01  -1.20000000000000E+01   0.00000000000000E+00  -3.62339067343928E-07
     -4.13496692701051E-15  -1.73621092545830E-07  -5.35960164024725E-07  -9.62161482250390E-14
      1.93619506835937E-10
      8.00000000000000E-01   8.00000000000000E-01   0.00000000000000E+00   3.75798645699304E-12   5.04603546904297E-07
     -2.22124219709180E-09   5.02386062693662E-07   1.67067734292435E-13   0.00000000000000E+00   0.00000000000000E+00
      0.00000000000000E+00  -1.99695432239748E-11  -1.97161955082511E-16   1.32850915928736E-08   1.32651218524877E-08
     -7.08290957180005E-14  -1.20000000000000E+01  -1.20000000000000E+01   0.00000000000000E+00  -3.31275243970724E-07
     -4.14168629793831E-15  -1.84375936433740E-07  -5.15651184546150E-07  -9.62386385744347E-14
      2.42274383544922E-10
      8.00000000000000E-01   8.00000000000000E-01   0.00000000000000E+00  -8.14076597695218E-13   5.03788081905268E-07
     -1.54743847626627E-09   5.02239829352404E-07   1.67083092735511E-13   0.00000000000000E+00   0.00000000000000E+00
      0.00000000000000E+00  -1.51775319712710E-11  -1.97161991389700E-16  -2.87143720106516E-09  -2.88661493019842E-09
     -7.08288589593838E-14  -1.20000000000000E+01  -1.20000000000000E+01   0.00000000000000E+00  -3.09916227378472E-07
     -4.14306874300089E-15  -1.89436982900666E-07  -4.99353214422206E-07  -9.62542337761274E-14
      3.15256698608398E-10
      8.00000000000000E-01   8.00000000000000E-01   0.00000000000000E+00  -3.72947876850217E-12   4.97151728262415E-07
     -9.02088479254058E-10   4.96245910304393E-07   1.67105549499887E-13   0.00000000000000E+00   0.00000000000000E+00
      0.00000000000000E+00  -1.22391762099463E-11  -1.97162036516823E-16  -2.17574161683531E-08  -2.17696555417251E-08
     -7.08297770481658E-14  -1.20000000000000E+01  -1.20000000000000E+01   0.00000000000000E+00  -2.80568565967281E-07
     -4.14409469381650E-15  -1.93907684651293E-07  -4.74476254762669E-07  -9.62757724517209E-14
      3.69993434906006E-10
      8.00000000000000E-01   8.00000000000000E-01   0.00000000000000E+00  -4.44316112235375E-12   4.90545662205523E-07
     -6.07570902182031E-10   4.89933648142218E-07   1.67121882325402E-13   0.00000000000000E+00   0.00000000000000E+00
      0.00000000000000E+00  -1.15544691547009E-11  -1.97162067531450E-16  -3.41434347031226E-08  -3.41549893694393E-08
     -7.08313118611705E-14  -1.20000000000000E+01  -1.20000000000000E+01   0.00000000000000E+00  -2.60229490204392E-07
     -4.14462828205421E-15  -1.95549164423761E-07  -4.55778658772781E-07  -9.62905704642309E-14
      4.52098539352417E-10
      8.00000000000000E-01   8.00000000000000E-01   0.00000000000000E+00  -4.81998496163573E-12   4.80151773712315E-07
     -3.39356789142145E-10   4.79807596938211E-07   1.67145601739489E-13   0.00000000000000E+00   0.00000000000000E+00
      0.00000000000000E+00  -1.11362775283454E-11  -1.97162113001837E-16  -5.18750115443743E-08  -5.18861480190647E-08
     -7.08348471781716E-14  -1.20000000000000E+01  -1.20000000000000E+01   0.00000000000000E+00  -2.31594523453467E-07
     -4.14532541369269E-15  -1.96326921320353E-07  -4.27921448919145E-07  -9.63107545613183E-14
      5.13677367687225E-10
      8.00000000000000E-01   8.00000000000000E-01   0.00000000000000E+00  -5.04349004517329E-12   4.72189583881849E-07
     -2.23697537275941E-10   4.71960842854528E-07   1.67162823128488E-13   0.00000000000000E+00   0.00000000000000E+00
      0.00000000000000E+00  -1.07728659468673E-11  -1.97162146433389E-16  -6.47210027903616E-08  -6.47317758534706E-08
     -7.08384371645571E-14  -1.20000000000000E+01  -1.20000000000000E+01   0.00000000000000E+00  -2.11197687110881E-07
     -4.14579164148131E-15  -1.96031375744385E-07  -4.07229067001057E-07  -9.63243859639316E-14
      5.59861488938332E-10
      8.00000000000000E-01   8.00000000000000E-01   0.00000000000000E+00  -5.33085627444571E-12   4.65991223020916E-07
     -1.65817519498471E-10   4.65820074645144E-07   1.67175434763098E-13   0.00000000000000E+00   0.00000000000000E+00
      0.00000000000000E+00  -1.03103693119099E-11  -1.97162170747771E-16  -7.39812632324208E-08  -7.39915737988948E-08
     -7.08416386758197E-14  -1.20000000000000E+01  -1.20000000000000E+01   0.00000000000000E+00  -1.96333726924388E-07
     -4.14611332215294E-15  -1.95494769775749E-07  -3.91828500846250E-07  -9.63337960872772E-14
      6.29137670814991E-10
      8.00000000000000E-01   8.00000000000000E-01   0.00000000000000E+00  -6.06067756441209E-12   4.55864857707101E-07
     -1.08060514425372E-10   4.55750736515111E-07   1.67193849070019E-13   0.00000000000000E+00   0.00000000000000E+00
      0.00000000000000E+00  -9.19061023875085E-12  -1.97162204902742E-16  -8.68289763733949E-08  -8.68381671807958E-08
     -7.08472077711366E-14  -1.20000000000000E+01  -1.20000000000000E+01   0.00000000000000E+00  -1.74552825228756E-07
     -4.14655240313552E-15  -1.94359739959009E-07  -3.68912569334317E-07  -9.63466412988821E-14
      7.33051943629980E-10
      8.00000000000000E-01   8.00000000000000E-01   0.00000000000000E+00  -7.90107088194843E-12   4.37344574355113E-07
     -6.02974841266986E-11   4.37276375800105E-07   1.67220169759211E-13   0.00000000000000E+00   0.00000000000000E+00
      0.00000000000000E+00  -6.44510332590590E-12  -1.97162247470943E-16  -1.02307049633271E-07  -1.02313494933759E-07
     -7.08570460744774E-14  -1.20000000000000E+01  -1.20000000000000E+01   0.00000000000000E+00  -1.42755696153313E-07
     -4.14711582104245E-15  -1.92207180565917E-07  -3.34962880866346E-07  -9.63631236847330E-14
      8.10987648241222E-10
      8.00000000000000E-01   8.00000000000000E-01   0.00000000000000E+00  -9.79691418236380E-12   4.19675750978806E-07
     -4.16480832117444E-11   4.19624305981412E-07   1.67238649541009E-13   0.00000000000000E+00   0.00000000000000E+00
      0.00000000000000E+00  -3.63043173418605E-12  -1.97162269760674E-16  -1.09734323546568E-07  -1.09737954175464E-07
     -7.08653084022946E-14  -1.20000000000000E+01  -1.20000000000000E+01   0.00000000000000E+00  -1.19487822944168E-07
     -4.14746510098507E-15  -1.90398524714315E-07  -3.09886351805947E-07  -9.63733411387145E-14
      9.27891205158085E-10
      8.00000000000000E-01   8.00000000000000E-01   0.00000000000000E+00  -1.30015171112468E-11   3.85491185870254E-07
     -2.64364625095897E-11   3.85451747890633E-07   1.67263633777959E-13   0.00000000000000E+00   0.00000000000000E+00
      0.00000000000000E+00   1.27035612716226E-12  -1.97162283305425E-16  -1.12269530943956E-07  -1.12268260784991E-07
     -7.08783113442916E-14  -1.20000000000000E+01  -1.20000000000000E+01   0.00000000000000E+00  -8.56119531181026E-08
     -4.14787470720532E-15  -1.87571529839666E-07  -2.73183487105644E-07  -9.63853224336673E-14
      1.01556887284573E-09
      8.00000000000000E-01   8.00000000000000E-01   0.00000000000000E+00  -1.52340776824007E-11   3.53720094737967E-07
     -2.04307885033946E-11   3.53684429871781E-07   1.67279677190841E-13   0.00000000000000E+00   0.00000000000000E+00
      0.00000000000000E+00   4.94067115881763E-12  -1.97162276879228E-16  -1.06975813491272E-07  -1.06970873017275E-07
     -7.08879194390668E-14  -1.20000000000000E+01  -1.20000000000000E+01   0.00000000000000E+00  -6.12812626141315E-08
     -4.14809474808568E-15  -1.85432290092280E-07  -2.46713556854506E-07  -9.63917577517729E-14
      1.14708537437720E-09
      8.00000000000000E-01   8.00000000000000E-01   0.00000000000000E+00  -1.73962077396386E-11   2.98531962286744E-07
     -1.52750686534958E-11   2.98499291010351E-07   1.67298376971387E-13   0.00000000000000E+00   0.00000000000000E+00
      0.00000000000000E+00   9.29893257103167E-12  -1.97162244175711E-16  -8.88470995710196E-08  -8.88378008356108E-08
     -7.09008096625951E-14  -1.20000000000000E+01  -1.20000000000000E+01   0.00000000000000E+00  -2.73835576986002E-08
     -4.14829347830989E-15  -1.82277928327847E-07  -2.09661490174741E-07  -9.63975673087924E-14
      1.34436012667441E-09
      8.00000000000000E-01   8.00000000000000E-01   0.00000000000000E+00  -1.69700269626162E-11   2.10996460090887E-07
     -1.13975635326433E-11   2.10968092500392E-07   1.67313004244138E-13   0.00000000000000E+00   0.00000000000000E+00
      0.00000000000000E+00   1.17088921758800E-11  -1.97162167788006E-16  -4.85032318368368E-08  -4.84915231418231E-08
     -7.09143383045292E-14  -1.20000000000000E+01  -1.20000000000000E+01   0.00000000000000E+00   1.52848413029223E-08
     -4.14833136611097E-15  -1.77761406513159E-07  -1.62476569358568E-07  -9.63986659396084E-14
      1.49231619089731E-09
      8.00000000000000E-01   8.00000000000000E-01   0.00000000000000E+00  -1.41923888027277E-11   1.51972702482487E-07
     -9.78215578619672E-12   1.51948727937898E-07   1.67313651432964E-13   0.00000000000000E+00   0.00000000000000E+00
      0.00000000000000E+00   1.04345331324509E-11  -1.97162110734028E-16  -1.70889782495673E-08  -1.70785439135970E-08
     -7.09190949793335E-14  -1.20000000000000E+01  -1.20000000000000E+01   0.00000000000000E+00   3.96867875630311E-08
     -4.14819123066708E-15  -1.74556967439140E-07  -1.34870184024300E-07  -9.63945564536297E-14
      1.71425028723167E-09
      8.00000000000000E-01   8.00000000000000E-01   0.00000000000000E+00  -8.78505011863796E-12   8.70400612854090E-08
     -8.12914705650041E-12   8.70231470882338E-08   1.67301534101815E-13   0.00000000000000E+00   0.00000000000000E+00
      0.00000000000000E+00   6.26906287704401E-12  -1.97162048423535E-16   1.82983446204483E-08   1.83046134861633E-08
     -7.09186677582140E-14  -1.20000000000000E+01  -1.20000000000000E+01   0.00000000000000E+00   6.45812880206179E-08
     -4.14779224815038E-15  -1.69909044447223E-07  -1.05327760574397E-07  -9.63828663436006E-14
      1.79747557335705E-09
      8.00000000000000E-01   8.00000000000000E-01   0.00000000000000E+00  -6.88363595186737E-12   7.04247691968429E-08
     -7.64921190277952E-12   7.04102363489883E-08   1.67293951331748E-13   0.00000000000000E+00   0.00000000000000E+00
      0.00000000000000E+00   4.62090417965851E-12  -1.97162031305544E-16   2.68924175963358E-08   2.68970383033535E-08
     -7.09167254197554E-14  -1.20000000000000E+01  -1.20000000000000E+01   0.00000000000000E+00   7.08467960900656E-08
     -4.14759970201337E-15  -1.68154066594807E-07  -9.73072746523416E-08  -9.63772259119913E-14
      1.82868505565407E-09
      8.00000000000000E-01   8.00000000000000E-01   0.00000000000000E+00  -6.27381141720270E-12   6.51828702885875E-08
     -7.48169221775929E-12   6.51691147849525E-08   1.67290808126300E-13   0.00000000000000E+00   0.00000000000000E+00
      0.00000000000000E+00   4.05355718219125E-12  -1.97162025308707E-16   2.94591430829036E-08   2.94631964429238E-08
     -7.09158248232030E-14  -1.20000000000000E+01  -1.20000000000000E+01   0.00000000000000E+00   7.28518106689558E-08
     -4.14752314412203E-15  -1.67484117749309E-07  -9.46323112278764E-08  -9.63749833030973E-14
      1.87549927909960E-09
      8.00000000000000E-01   8.00000000000000E-01   0.00000000000000E+00  -5.40108600122064E-12   5.82190604950847E-08
     -7.24119733256763E-12   5.82064182117509E-08   1.67285845038815E-13   0.00000000000000E+00   0.00000000000000E+00
      0.00000000000000E+00   3.25073032410585E-12  -1.97162016424835E-16   3.26979360809107E-08   3.27011866140728E-08
     -7.09143361626459E-14  -1.20000000000000E+01  -1.20000000000000E+01   0.00000000000000E+00   7.55528909501019E-08
     -4.14740453300541E-15  -1.66460491628521E-07  -9.09076048258236E-08  -9.63715088761685E-14
      1.94572061426789E-09
      8.00000000000000E-01   8.00000000000000E-01   0.00000000000000E+00  -4.27372647834546E-12   4.95656457575853E-08
     -6.90187886254440E-12   4.95544701522444E-08   1.67277938276783E-13   0.00000000000000E+00   0.00000000000000E+00
      0.00000000000000E+00   2.20274472444873E-12  -1.97162002849802E-16   3.63194898660005E-08   3.63216924135630E-08
     -7.09118576576353E-14  -1.20000000000000E+01  -1.20000000000000E+01   0.00000000000000E+00   7.89930830391036E-08
     -4.14721921923613E-15  -1.64869241457692E-07  -8.58761625658074E-08  -9.63660806191477E-14
      2.05105261702033E-09
      8.00000000000000E-01   8.00000000000000E-01   0.00000000000000E+00  -2.96768309130853E-12   3.98645750755923E-08
     -6.43353454683430E-12   3.98551738579541E-08   1.67265317126880E-13   0.00000000000000E+00   0.00000000000000E+00
      0.00000000000000E+00   9.69170512477299E-13  -1.97161980773474E-16   3.94520028114812E-08   3.94529717848317E-08
     -7.09077736362238E-14  -1.20000000000000E+01  -1.20000000000000E+01   0.00000000000000E+00   8.30001465705906E-08
     -4.14692777159148E-15  -1.62308288066449E-07  -7.93081456427859E-08  -9.63575434906560E-14
      2.20905062114899E-09
      8.00000000000000E-01   8.00000000000000E-01   0.00000000000000E+00  -1.71550428665349E-12   3.04942122872785E-08
     -5.80424185506661E-12   3.04866925411367E-08   1.67245402715451E-13   0.00000000000000E+00   0.00000000000000E+00
      0.00000000000000E+00  -2.26278178625079E-13  -1.97161942580167E-16   4.04661790443724E-08   4.04659525690318E-08
     -7.09013003780695E-14  -1.20000000000000E+01  -1.20000000000000E+01   0.00000000000000E+00   8.69584626429664E-08
     -4.14646891360988E-15  -1.57911103606666E-07  -7.09526451101685E-08  -9.63441023373819E-14
      2.44604762734198E-09
      8.00000000000000E-01   8.00000000000000E-01   0.00000000000000E+00  -8.40003925168865E-13   2.28802424169530E-08
     -4.98680150132060E-12   2.28744156115265E-08   1.67214984370714E-13   0.00000000000000E+00   0.00000000000000E+00
      0.00000000000000E+00  -1.03453439806981E-12  -1.97161879345416E-16   3.74441972718460E-08   3.74431625402861E-08
     -7.08918050368085E-14  -1.20000000000000E+01  -1.20000000000000E+01   0.00000000000000E+00   8.92734834606199E-08
     -4.14575467089501E-15  -1.49591057466678E-07  -6.03175781518125E-08  -9.63231793339055E-14
      2.62379538198672E-09
      8.00000000000000E-01   8.00000000000000E-01   0.00000000000000E+00  -5.89194151847938E-13   1.96024312821215E-08
     -4.45361208633647E-12   1.95973884758834E-08   1.67192661841852E-13   0.00000000000000E+00   0.00000000000000E+00
      0.00000000000000E+00  -1.20859333837730E-12  -1.97161835508380E-16   3.36102041383377E-08   3.36089953478375E-08
     -7.08852997999743E-14  -1.20000000000000E+01  -1.20000000000000E+01   0.00000000000000E+00   8.85286547150565E-08
     -4.14521474742991E-15  -1.41735034393562E-07  -5.32063838237207E-08  -9.63073620418784E-14
      2.89041701395383E-09
      8.00000000000000E-01   8.00000000000000E-01   0.00000000000000E+00  -4.28871826102733E-13   1.60809536417893E-08
     -3.75756360897435E-12   1.60767672063543E-08   1.67161211534881E-13   0.00000000000000E+00   0.00000000000000E+00
      0.00000000000000E+00  -1.19920755687820E-12  -1.97161789602912E-16   2.74468233995602E-08   2.74456239948416E-08
     -7.08768708869492E-14  -1.20000000000000E+01  -1.20000000000000E+01   0.00000000000000E+00   8.38134046438166E-08
     -4.14442894282760E-15  -1.27335791700583E-07  -4.35223912011957E-08  -9.62843406479319E-14
      3.09038323792916E-09
      8.00000000000000E-01   8.00000000000000E-01   0.00000000000000E+00  -3.66860779534055E-13   1.39884436798962E-08
     -3.30661883930228E-12   1.39847702002774E-08   1.67139770197447E-13   0.00000000000000E+00   0.00000000000000E+00
      0.00000000000000E+00  -1.09803990714116E-12  -1.97161773258166E-16   2.30586506393355E-08   2.30575524022666E-08
     -7.08716047980794E-14  -1.20000000000000E+01  -1.20000000000000E+01   0.00000000000000E+00   7.78122112598207E-08
     -4.14387683400403E-15  -1.14854529718488E-07  -3.70423226025440E-08  -9.62681653993669E-14
      3.24035790591066E-09
      8.00000000000000E-01   8.00000000000000E-01   0.00000000000000E+00  -3.32779546664344E-13   1.26051201666270E-08
     -3.00348436936635E-12   1.26017839027110E-08   1.67125119358246E-13   0.00000000000000E+00   0.00000000000000E+00
      0.00000000000000E+00  -1.00084627222048E-12  -1.97161770091996E-16   2.00531894566744E-08   2.00521884132404E-08
     -7.08682115293790E-14  -1.20000000000000E+01  -1.20000000000000E+01   0.00000000000000E+00   7.22520680585056E-08
     -4.14349258154497E-15  -1.04906036230964E-07  -3.26539723159514E-08  -9.62569078288665E-14
      3.46531990788291E-09
      8.00000000000000E-01   8.00000000000000E-01   0.00000000000000E+00  -2.85837488946027E-13   1.07741634679982E-08
     -2.59875963175309E-12   1.07712788708775E-08   1.67105617732857E-13   0.00000000000000E+00   0.00000000000000E+00
      0.00000000000000E+00  -8.46467044393136E-13  -1.97161775907856E-16   1.60881558213793E-08   1.60873091571731E-08
     -7.08639179692368E-14  -1.20000000000000E+01  -1.20000000000000E+01   0.00000000000000E+00   6.28841649579446E-08
     -4.14297348464986E-15  -8.97427488430217E-08  -2.68585880280506E-08  -9.62416997636199E-14
      3.80276291084128E-09
      8.00000000000000E-01   8.00000000000000E-01   0.00000000000000E+00  -2.25641201633095E-13   8.50454851139042E-09
     -2.08930325235587E-12   8.50223356693643E-09   1.67081925288307E-13   0.00000000000000E+00   0.00000000000000E+00
      0.00000000000000E+00  -6.17898419955066E-13  -1.97161798752023E-16   1.13843772893971E-08   1.13837591938154E-08
     -7.08589782092296E-14  -1.20000000000000E+01  -1.20000000000000E+01   0.00000000000000E+00   4.83126647657045E-08
     -4.14233339112135E-15  -6.81986533841228E-08  -1.98859927607517E-08  -9.62229470790782E-14
      4.30892741527885E-09
      8.00000000000000E-01   8.00000000000000E-01   0.00000000000000E+00  -1.54389175029424E-13   5.97897116261416E-09
     -1.50258579121111E-12   5.97731418764792E-09   1.67057391425937E-13   0.00000000000000E+00   0.00000000000000E+00
      0.00000000000000E+00  -3.49719087321730E-13  -1.97161844932295E-16   6.75541907941027E-09   6.75506916316110E-09
     -7.08540264717206E-14  -1.20000000000000E+01  -1.20000000000000E+01   0.00000000000000E+00   2.95601667743829E-08
     -4.14166497927541E-15  -4.22925459835269E-08  -1.27323833508090E-08  -9.62033649542168E-14
      5.06817417193519E-09
      8.00000000000000E-01   8.00000000000000E-01   0.00000000000000E+00  -8.80409066751173E-14   3.58085750365934E-09
     -9.11604674275355E-13   3.57985785807839E-09   1.67037536238032E-13   0.00000000000000E+00   0.00000000000000E+00
      0.00000000000000E+00  -1.34113420902236E-13  -1.97161913983731E-16   3.36661431365890E-09   3.36648000307608E-09
     -7.08498223212135E-14  -1.20000000000000E+01  -1.20000000000000E+01   0.00000000000000E+00   1.27810203343375E-08
     -4.14113073707300E-15  -1.97273540543612E-08  -6.94633786115446E-09  -9.61877139168189E-14
      6.20704430691970E-09
      8.00000000000000E-01   8.00000000000000E-01   0.00000000000000E+00  -4.03770699555612E-14   1.70382367795567E-09
     -4.24864951619119E-13   1.70335843593410E-09   1.67025187780141E-13   0.00000000000000E+00   0.00000000000000E+00
      0.00000000000000E+00  -4.26601425329791E-14  -1.97161998606924E-16   1.56571867980494E-09   1.56567582250041E-09
     -7.08467159181599E-14  -1.20000000000000E+01  -1.20000000000000E+01   0.00000000000000E+00   4.38832543246236E-09
     -4.14081517236757E-15  -7.65735555008169E-09  -3.26903425843450E-09  -9.61784718619823E-14
      7.91534950939647E-09
      8.00000000000000E-01   8.00000000000000E-01   0.00000000000000E+00  -1.33117069123916E-14   5.42198817667537E-10
     -1.29148866863548E-13   5.42056357093762E-10   1.67018220997472E-13   0.00000000000000E+00   0.00000000000000E+00
      0.00000000000000E+00  -1.77827298407883E-14  -1.97162082822587E-16   6.03490190621233E-10   6.03472210729310E-10
     -7.08447336895252E-14  -1.20000000000000E+01  -1.20000000000000E+01   0.00000000000000E+00   1.65447309358706E-09
     -4.14064486673544E-15  -2.79999752076526E-09  -1.14552856782307E-09  -9.61734873079469E-14
      1.04778073131116E-08
      8.00000000000000E-01   8.00000000000000E-01   0.00000000000000E+00  -1.86964839523035E-15   7.47546753443857E-11
     -1.75752575491353E-14   7.47352304384413E-11   1.67015131110004E-13   0.00000000000000E+00   0.00000000000000E+00
      0.00000000000000E+00  -2.71324486794785E-15  -1.97162137405178E-16   1.38871281120292E-10   1.38868370713287E-10
     -7.08439030456582E-14  -1.20000000000000E+01  -1.20000000000000E+01   0.00000000000000E+00   2.56790412768616E-10
     -4.14056767316029E-15  -4.70389873352671E-10  -2.13603601151728E-10  -9.61712280643455E-14
      1.23996506658980E-08
      8.00000000000000E-01   8.00000000000000E-01   0.00000000000000E+00  -4.57016408049529E-16   1.91720577289282E-11
     -4.46046755856381E-15   1.91671402449616E-11   1.67014755003583E-13   0.00000000000000E+00   0.00000000000000E+00
      0.00000000000000E+00  -6.50768740148128E-16  -1.97162143825673E-16   8.16107940074362E-11   8.16099460765522E-11
     -7.08438048334989E-14  -1.20000000000000E+01  -1.20000000000000E+01   0.00000000000000E+00   5.69233726648282E-11
     -4.14055817974570E-15  -1.57696318428162E-10  -1.00777086321514E-10  -9.61709501700838E-14
      1.52824156950775E-08
      8.00000000000000E-01   8.00000000000000E-01   0.00000000000000E+00  -4.17295967883392E-17   2.00208146171323E-12
     -3.80686129425376E-16   2.00165904598701E-12   1.67014642629309E-13   0.00000000000000E+00   0.00000000000000E+00
      0.00000000000000E+00  -6.86466699472756E-17  -1.97162130071144E-16   6.46851393795049E-11   6.46848735707048E-11
     -7.08437749589121E-14  -1.20000000000000E+01  -1.20000000000000E+01   0.00000000000000E+00   6.17844998490873E-12
     -4.14055536084258E-15  -7.28608420462396E-11  -6.66865326166917E-11  -9.61708676703973E-14
      1.74444894669622E-08
      8.00000000000000E-01   8.00000000000000E-01   0.00000000000000E+00  -7.87372113633951E-18   6.07827065678448E-13
     -6.17902621553062E-17   6.07757401695156E-13   1.67014633673538E-13   0.00000000000000E+00   0.00000000000000E+00