DF-ISE text

Info {
  version   = 1.0
  type      = xyplot
  datasets  = [
    "time"
    "Ntop_0_1 OuterVoltage" "Ntop_0_1 InnerVoltage" "Ntop_0_1 QuasiFermiPotential" "Ntop_0_1 DisplacementCurrent" "Ntop_0_1 eCurrent"
    "Ntop_0_1 hCurrent" "Ntop_0_1 TotalCurrent" "Ntop_0_1 Charge" "Ntop_1_0 OuterVoltage" "Ntop_1_0 InnerVoltage"
    "Ntop_1_0 QuasiFermiPotential" "Ntop_1_0 DisplacementCurrent" "Ntop_1_0 eCurrent" "Ntop_1_0 hCurrent" "Ntop_1_0 TotalCurrent"
    "Ntop_1_0 Charge" "Ntop_1_1 OuterVoltage" "Ntop_1_1 InnerVoltage" "Ntop_1_1 QuasiFermiPotential" "Ntop_1_1 DisplacementCurrent"
    "Ntop_1_1 eCurrent" "Ntop_1_1 hCurrent" "Ntop_1_1 TotalCurrent" "Ntop_1_1 Charge" "Ptop OuterVoltage"
    "Ptop InnerVoltage" "Ptop QuasiFermiPotential" "Ptop DisplacementCurrent" "Ptop eCurrent" "Ptop hCurrent"
    "Ptop TotalCurrent" "Ptop Charge" "Pbot OuterVoltage" "Pbot InnerVoltage" "Pbot QuasiFermiPotential"
    "Pbot DisplacementCurrent" "Pbot eCurrent" "Pbot hCurrent" "Pbot TotalCurrent" "Pbot Charge"
    "Ntop_0_0 OuterVoltage" "Ntop_0_0 InnerVoltage" "Ntop_0_0 QuasiFermiPotential" "Ntop_0_0 DisplacementCurrent" "Ntop_0_0 eCurrent"
    "Ntop_0_0 hCurrent" "Ntop_0_0 TotalCurrent" "Ntop_0_0 Charge" ]
  functions = [
    Time
    OuterVoltage InnerVoltage QuasiFermiPotential DisplacementCurrent eCurrent
    hCurrent TotalCurrent Charge OuterVoltage InnerVoltage
    QuasiFermiPotential DisplacementCurrent eCurrent hCurrent TotalCurrent
    Charge OuterVoltage InnerVoltage QuasiFermiPotential DisplacementCurrent
    eCurrent hCurrent TotalCurrent Charge OuterVoltage
    InnerVoltage QuasiFermiPotential DisplacementCurrent eCurrent hCurrent
    TotalCurrent Charge OuterVoltage InnerVoltage QuasiFermiPotential
    DisplacementCurrent eCurrent hCurrent TotalCurrent Charge
    OuterVoltage InnerVoltage QuasiFermiPotential DisplacementCurrent eCurrent
    hCurrent TotalCurrent Charge ]
}

Data {
      5.00000000000000E-13
      8.00000000000000E-01   8.00000000000000E-01   0.00000000000000E+00   7.38285171285121E-15   2.80367099393673E-13
      2.07509555403202E-17   2.87770702062064E-13   1.81730493314432E-13   8.00000000000000E-01   8.00000000000000E-01
      0.00000000000000E+00   1.47692422150637E-14   2.81641990633592E-13   2.07509434273677E-17   2.96431983792083E-13
      2.57083257263026E-13   8.00000000000000E-01   8.00000000000000E-01   0.00000000000000E+00   1.31496882524020E-14
      2.83101056827696E-13   2.07509550507758E-17   2.96271496035149E-13   2.36080971341182E-13   0.00000000000000E+00
      0.00000000000000E+00   0.00000000000000E+00  -4.39380590320417E-13   1.82675923259656E-12   1.33923315105212E-08
      1.33937188891635E-08  -2.41301524395453E-13  -4.00000000000000E+01  -4.00000000000000E+01   0.00000000000000E+00
     -1.19901538246470E-13   3.62309377288447E-12  -1.33983948735486E-08  -1.33948916813140E-08  -6.32439967294867E-13
      8.00000000000000E-01   8.00000000000000E-01   0.00000000000000E+00   8.27755056543253E-15   2.84019667186748E-13
      2.07509515767272E-17   2.92317968703757E-13   1.98846769771680E-13
      1.25000000000000E-12
      8.00000000000000E-01   8.00000000000000E-01   0.00000000000000E+00   3.22333183168006E-15   2.84197782445298E-13
      2.07509533387450E-17   2.87441865230317E-13   1.81730493314433E-13   8.00000000000000E-01   8.00000000000000E-01
      0.00000000000000E+00   2.03370313288298E-15   2.83391688280296E-13   2.07509432650443E-17   2.85446142356444E-13
      2.57083257263027E-13   8.00000000000000E-01   8.00000000000000E-01   0.00000000000000E+00   2.20525575049699E-15
      2.81658710827965E-13   2.07509535467996E-17   2.83884717532009E-13   2.36080971341182E-13   0.00000000000000E+00
      0.00000000000000E+00   0.00000000000000E+00  -4.59780942638225E-13   8.43591661488895E-12   1.33863411419614E-08
      1.33943172776336E-08  -2.41301524394972E-13  -4.00000000000000E+01  -4.00000000000000E+01   0.00000000000000E+00
     -5.04846416459575E-13   1.68000602580641E-11  -1.34117747087920E-08  -1.33954794949504E-08  -6.32439967295081E-13
      8.00000000000000E-01   8.00000000000000E-01   0.00000000000000E+00   3.41052375371521E-15   3.02013316936872E-13
      2.07509527105208E-17   3.05444591643298E-13   1.98846769771409E-13
      2.37500000000000E-12
      8.00000000000000E-01   8.00000000000000E-01   0.00000000000000E+00   1.14641624335549E-15   3.10915716356433E-13
      2.07509568087821E-17   3.12082883556598E-13   1.81730493314450E-13   8.00000000000000E-01   8.00000000000000E-01
      0.00000000000000E+00   8.53023691865257E-16   3.11205474010104E-13   2.07509528032158E-17   3.12079248654772E-13
      2.57083257263044E-13   8.00000000000000E-01   8.00000000000000E-01   0.00000000000000E+00  -5.41362735805417E-16
      2.95586456327331E-13   2.07509534123755E-17   2.95065844544938E-13   2.36080971341190E-13   0.00000000000000E+00
      0.00000000000000E+00   0.00000000000000E+00   7.31800274075696E-13   6.98292791747924E-11   1.33309059316429E-08
      1.34014670110918E-08  -2.41301524387825E-13  -4.00000000000000E+01  -4.00000000000000E+01   0.00000000000000E+00
     -5.52167248561232E-12   1.39133094480328E-10  -1.35365076174319E-08  -1.34028961954372E-08  -6.32439967298254E-13
      8.00000000000000E-01   8.00000000000000E-01   0.00000000000000E+00   9.07261656203429E-15   5.00863001155517E-13
      2.07509532413175E-17   5.09956368670792E-13   1.98846769767396E-13
      4.06250000000000E-12
      8.00000000000000E-01   8.00000000000000E-01   0.00000000000000E+00   1.97139231098895E-14   8.72570095952287E-13
      2.07509538661720E-17   8.92304770016043E-13   1.81730493314955E-13   8.00000000000000E-01   8.00000000000000E-01
      0.00000000000000E+00   2.27454370312526E-14   8.72575934276280E-13   2.07509504641207E-17   8.95342122257997E-13
      2.57083257263548E-13   8.00000000000000E-01   8.00000000000000E-01   0.00000000000000E+00   1.14431912132044E-14
      5.49172992646611E-13   2.07509538368565E-17   5.60636934813652E-13   2.36080971341419E-13   0.00000000000000E+00
      0.00000000000000E+00   0.00000000000000E+00   7.20441079898094E-12   1.05983416959648E-09   1.24924667875109E-08
      1.35595053679063E-08  -2.41301524174427E-13  -4.00000000000000E+01  -4.00000000000000E+01   0.00000000000000E+00
     -1.16358393817945E-10   2.10989322941270E-09  -1.55603418356497E-08  -1.35668070000550E-08  -6.32439967393083E-13
      8.00000000000000E-01   8.00000000000000E-01   0.00000000000000E+00   1.40392280232741E-13   4.81293529038259E-12
      2.07509566848577E-17   4.95334832157201E-12   1.98846769647586E-13
      6.59375000000000E-12
      8.00000000000000E-01   8.00000000000000E-01   0.00000000000000E+00   3.54132737048055E-13   1.73900209483378E-11
      2.07509565990252E-17   1.77441744363425E-11   1.81730493336269E-13   8.00000000000000E-01   8.00000000000000E-01
      0.00000000000000E+00   3.53787708469239E-13   1.73964957997479E-11   2.07509571423608E-17   1.77503042591743E-11
      2.57083257284873E-13   8.00000000000000E-01   8.00000000000000E-01   0.00000000000000E+00   1.59279214332563E-13
      8.02039095154442E-12   2.07509530033265E-17   8.17969091682998E-12   2.36080971351066E-13   0.00000000000000E+00
      0.00000000000000E+00   0.00000000000000E+00   1.43654752927901E-10   2.12260173872332E-08  -3.09911800682356E-09
      1.82705541333376E-08  -2.41301514954544E-13  -4.00000000000000E+01  -4.00000000000000E+01   0.00000000000000E+00
     -3.41772378908573E-09   4.21872005019967E-08  -5.72177468502036E-08  -1.84482701372926E-08  -6.32439971499529E-13
      8.00000000000000E-01   8.00000000000000E-01   0.00000000000000E+00   2.71287127148023E-12   1.31328942320393E-10
      2.07507724932358E-17   1.34041834342645E-10   1.98846764481866E-13
      1.03906250000000E-11
      8.00000000000000E-01   8.00000000000000E-01   0.00000000000000E+00   2.91383799340721E-12   2.28101565167546E-10
      2.07509559964468E-17   2.31015423911909E-10   1.81730493780866E-13   8.00000000000000E-01   8.00000000000000E-01
      0.00000000000000E+00   2.91622786379239E-12   2.28190446919904E-10   2.07509482227237E-17   2.31106695534644E-10
      2.57083257729695E-13   8.00000000000000E-01   8.00000000000000E-01   0.00000000000000E+00   1.31414146046043E-12
      1.03179994765557E-10   2.07509538254708E-17   1.04494156976971E-10   2.36080971552000E-13   0.00000000000000E+00
      0.00000000000000E+00   0.00000000000000E+00   1.19411508673563E-09   1.76929039144820E-07  -9.87443793440547E-08
      7.93787748875010E-08  -2.41301318651853E-13  -4.00000000000000E+01  -4.00000000000000E+01   0.00000000000000E+00
     -4.61945369816187E-08   3.50532961892729E-07  -3.86048825876975E-07  -8.17104009658650E-08  -6.32440059340524E-13
      8.00000000000000E-01   8.00000000000000E-01   0.00000000000000E+00   2.22508501364381E-11   1.74275893105315E-09
      2.07514119078895E-17   1.76500980194100E-09   1.98846654929815E-13
      1.60859375000000E-11
      8.00000000000000E-01   8.00000000000000E-01   0.00000000000000E+00   1.50851753961896E-12   5.36115065389025E-10
      2.07509544258864E-17   5.37623603679598E-10   1.81730496017816E-13   8.00000000000000E-01   8.00000000000000E-01
      0.00000000000000E+00   1.50974973653845E-12   5.36339193325457E-10   2.07509458916057E-17   5.37848963812942E-10
      2.57083259968098E-13   8.00000000000000E-01   8.00000000000000E-01   0.00000000000000E+00   6.74074706938627E-13
      2.41389830196312E-10   2.07509537119484E-17   2.42063925654205E-10   2.36080972560027E-13   0.00000000000000E+00
      0.00000000000000E+00   0.00000000000000E+00   6.28878226946240E-10   9.59133744789009E-08   7.60910056953449E-08
      1.72633258401192E-07  -2.41300308819102E-13  -4.00000000000000E+01  -4.00000000000000E+01   0.00000000000000E+00
     -1.11065821524104E-07   1.84706764298182E-07  -2.51695674266852E-07  -1.78054731492773E-07  -6.32440514888459E-13
      8.00000000000000E-01   8.00000000000000E-01   0.00000000000000E+00   1.15412036953942E-11   4.09239537398833E-09
      2.07504627084922E-17   4.10393659843419E-09   1.98846095161619E-13
      2.46289062500000E-11
      8.00000000000000E-01   8.00000000000000E-01   0.00000000000000E+00   2.53738186490679E-14   6.59285552159639E-10
      2.07509555965093E-17   6.59310946729243E-10   1.81730501282537E-13   8.00000000000000E-01   8.00000000000000E-01
      0.00000000000000E+00   2.57374778006811E-14   6.59583171595334E-10   2.07509628494879E-17   6.59608929824098E-10
      2.57083265237879E-13   8.00000000000000E-01   8.00000000000000E-01   0.00000000000000E+00   4.99541868859063E-15
      2.95253443271795E-10   2.07509548085222E-17   2.95258459441439E-10   2.36080974923195E-13   0.00000000000000E+00
      0.00000000000000E+00   0.00000000000000E+00   9.24125004610600E-13   4.20843725717263E-09   2.06654453815423E-07
      2.10863815197601E-07  -2.41297953058689E-13  -4.00000000000000E+01  -4.00000000000000E+01   0.00000000000000E+00
     -1.36540076840010E-07   3.42236216234097E-10  -8.13343177358783E-08  -2.17532158359655E-07  -6.32441592048281E-13
      8.00000000000000E-01   8.00000000000000E-01   0.00000000000000E+00   3.65941392284713E-13   5.05379886391601E-09
      2.07509319161114E-17   5.05416482605922E-09   1.98844803663358E-13
      3.74433593750000E-11
      8.00000000000000E-01   8.00000000000000E-01   0.00000000000000E+00   2.87782446890553E-14   6.68563268701517E-10
      2.07509555798911E-17   6.68592067697162E-10   1.81730510000855E-13   8.00000000000000E-01   8.00000000000000E-01
      0.00000000000000E+00   2.89973409885165E-14   6.68873226701888E-10   2.07509487228074E-17   6.68902244793825E-10
      2.57083273969246E-13   8.00000000000000E-01   8.00000000000000E-01   0.00000000000000E+00   7.00488740066243E-15
      2.97202789914812E-10   2.07509535211817E-17   2.97209815553166E-10   2.36080978814391E-13   0.00000000000000E+00
      0.00000000000000E+00   0.00000000000000E+00  -1.85142524402342E-12   3.62246044853011E-09   2.07108516034939E-07
      2.10729125058225E-07  -2.41294232503920E-13  -4.00000000000000E+01  -4.00000000000000E+01   0.00000000000000E+00
     -1.34406059800478E-07  -2.37110629982622E-14  -8.31613745268204E-08  -2.17567458038361E-07  -6.32443328338672E-13
      8.00000000000000E-01   8.00000000000000E-01   0.00000000000000E+00   4.86943168074275E-13   5.20314188817270E-09
      2.07510010005649E-17   5.20362885209178E-09   1.98842798058100E-13
      5.66650390625000E-11
      8.00000000000000E-01   8.00000000000000E-01   0.00000000000000E+00  -1.54574458887887E-14   6.69661671814794E-10
      2.07509552963224E-17   6.69646235119861E-10   1.81730523389059E-13   8.00000000000000E-01   8.00000000000000E-01
      0.00000000000000E+00  -1.53287940853136E-14   6.69976762187351E-10   2.07509593195028E-17   6.69961454144225E-10
      2.57083287387014E-13   8.00000000000000E-01   8.00000000000000E-01   0.00000000000000E+00  -1.33892468631083E-14
      2.94384261984618E-10   2.07509551672283E-17   2.94370893488711E-10   2.36080984739356E-13   0.00000000000000E+00
      0.00000000000000E+00   0.00000000000000E+00  -2.23821763421674E-12   3.07377141128220E-09   2.06662547839058E-07
      2.09734081032706E-07  -2.41288900384382E-13  -4.00000000000000E+01  -4.00000000000000E+01   0.00000000000000E+00
     -1.30970290486074E-07  -2.37111576009169E-14  -8.57587249291323E-08  -2.16729039126364E-07  -6.32445878640235E-13
      8.00000000000000E-01   8.00000000000000E-01   0.00000000000000E+00   1.86912073433226E-13   5.36079257808016E-09
      2.07510314159753E-17   5.36097951090462E-09   1.98839983509188E-13
      8.54975585937500E-11
      8.00000000000000E-01   8.00000000000000E-01   0.00000000000000E+00  -3.93818770944524E-14   6.46638564130288E-10
      2.07509535487391E-17   6.46599203004147E-10   1.81730543463991E-13   8.00000000000000E-01   8.00000000000000E-01
      0.00000000000000E+00  -3.93715542161622E-14   6.46949016194652E-10   2.07509605452007E-17   6.46909665391396E-10
      2.57083307523156E-13   8.00000000000000E-01   8.00000000000000E-01   0.00000000000000E+00  -2.40702271184435E-14
      2.79005921032751E-10   2.07509547885413E-17   2.78981871556588E-10   2.36080993501952E-13   0.00000000000000E+00
      0.00000000000000E+00   0.00000000000000E+00  -2.71490413630140E-12   2.39990083759613E-09   2.05610455895730E-07
      2.08007641829190E-07  -2.41281343781274E-13  -4.00000000000000E+01  -4.00000000000000E+01   0.00000000000000E+00
     -1.26223613600315E-07  -2.37112583093157E-14  -8.87937997593267E-08  -2.15017437070900E-07  -6.32449585813985E-13
      8.00000000000000E-01   8.00000000000000E-01   0.00000000000000E+00   3.85172197906100E-14   5.43726596378690E-09
      2.07510059030546E-17   5.43730450175770E-09   1.98836085106159E-13
      1.28746337890625E-10
      8.00000000000000E-01   8.00000000000000E-01   0.00000000000000E+00  -5.61650892458957E-14   5.89022306206722E-10
      2.07509550972536E-17   5.88966161868432E-10   1.81730572232060E-13   8.00000000000000E-01   8.00000000000000E-01
      0.00000000000000E+00  -5.62576647388125E-14   5.89313679669728E-10   2.07509445437348E-17   5.89257442755934E-10
      2.57083336406219E-13   8.00000000000000E-01   8.00000000000000E-01   0.00000000000000E+00  -3.14589345571957E-14
      2.45736382630301E-10   2.07509542653282E-17   2.45704944446699E-10   2.36081005759347E-13   0.00000000000000E+00
      0.00000000000000E+00   0.00000000000000E+00  -2.88399972746791E-12   1.65324860928828E-09   2.03611796267223E-07
      2.05262160876784E-07  -2.41270747061653E-13  -4.00000000000000E+01  -4.00000000000000E+01   0.00000000000000E+00
     -1.20041656816078E-07  -2.37114022470179E-14  -9.20516977095555E-08  -2.12093378237036E-07  -6.32454909123930E-13
      8.00000000000000E-01   8.00000000000000E-01   0.00000000000000E+00  -6.83921721195359E-14   5.40735718260079E-09
      2.07509608545588E-17   5.40728881117963E-09   1.98830741787954E-13
      1.93619506835937E-10
      8.00000000000000E-01   8.00000000000000E-01   0.00000000000000E+00  -6.66274191685617E-14   4.79953555172166E-10
      2.07509555075304E-17   4.79886948503953E-10   1.81730610228533E-13   8.00000000000000E-01   8.00000000000000E-01
      0.00000000000000E+00  -6.67198489624240E-14   4.80208711676936E-10   2.07509575563931E-17   4.80142012578931E-10
      2.57083374595954E-13   8.00000000000000E-01   8.00000000000000E-01   0.00000000000000E+00  -3.57013406019046E-14
      1.86306549438289E-10   2.07509537184506E-17   1.86270868848641E-10   2.36081021196450E-13   0.00000000000000E+00
      0.00000000000000E+00   0.00000000000000E+00  -2.98954591433471E-12   9.43511162270964E-10   2.00209183919660E-07
      2.01149705536016E-07  -2.41256036118400E-13  -4.00000000000000E+01  -4.00000000000000E+01   0.00000000000000E+00
     -1.12526564886157E-07  -2.37116042367096E-14  -9.49829328173062E-08  -2.07509521415068E-07  -6.32462448089857E-13
      8.00000000000000E-01   8.00000000000000E-01   0.00000000000000E+00  -1.40274402574796E-13   5.21365630277131E-09
      2.07508310947847E-17   5.21351604911957E-09   1.98823478187318E-13
      2.42274383544922E-10
      8.00000000000000E-01   8.00000000000000E-01   0.00000000000000E+00  -6.98540880388504E-14   3.89852460732001E-10
      2.07509558258842E-17   3.89782627394918E-10   1.81730633736894E-13   8.00000000000000E-01   8.00000000000000E-01
      0.00000000000000E+00  -6.98663089529004E-14   3.90082351935378E-10   2.07509515480137E-17   3.90012506377376E-10
      2.57083398250803E-13   8.00000000000000E-01   8.00000000000000E-01   0.00000000000000E+00  -3.66877934072149E-14
      1.38611055549910E-10   2.07509536236253E-17   1.38574388507456E-10   2.36081030052326E-13   0.00000000000000E+00
      0.00000000000000E+00   0.00000000000000E+00  -3.06262595031205E-12   6.23453139461883E-10   1.97454197327472E-07
      1.98074587840984E-07  -2.41245711161612E-13  -4.00000000000000E+01  -4.00000000000000E+01   0.00000000000000E+00
     -1.07846968033128E-07  -2.37117463924101E-14  -9.61529223597206E-08  -2.03999914104595E-07  -6.32467808009495E-13
      8.00000000000000E-01   8.00000000000000E-01   0.00000000000000E+00  -1.67969504418779E-13   5.00712469008388E-09
      2.07510693757267E-17   5.00695674133053E-09   1.98818457131086E-13
      2.78765541076660E-10
      8.00000000000000E-01   8.00000000000000E-01   0.00000000000000E+00  -7.07423242630475E-14   3.20367910014936E-10
      2.07509532180088E-17   3.20297188441626E-10   1.81730648283387E-13   8.00000000000000E-01   8.00000000000000E-01
      0.00000000000000E+00  -7.07012317701573E-14   3.20581580233013E-10   2.07509536708126E-17   3.20510899752197E-10
      2.57083412903565E-13   8.00000000000000E-01   8.00000000000000E-01   0.00000000000000E+00  -3.65867915446552E-14
      1.02373297422088E-10   2.07509545126049E-17   1.02336731381498E-10   2.36081035053929E-13   0.00000000000000E+00
      0.00000000000000E+00   0.00000000000000E+00  -3.14158034564274E-12   4.58635997947847E-10   1.95299133417618E-07
      1.95754627835220E-07  -2.41238289026531E-13  -4.00000000000000E+01  -4.00000000000000E+01   0.00000000000000E+00
     -1.04669131318373E-07  -2.37118484915154E-14  -9.66613670325959E-08  -2.01330522062817E-07  -6.32471685149289E-13
      8.00000000000000E-01   8.00000000000000E-01   0.00000000000000E+00  -1.81478953482009E-13   4.83293086622397E-09
      2.07509398282908E-17   4.83274940802143E-09   1.98814877934939E-13
      3.33502277374268E-10
      8.00000000000000E-01   8.00000000000000E-01   0.00000000000000E+00  -7.08107927346535E-14   2.15517256727854E-10
      2.07509531278021E-17   2.15446466686073E-10   1.81730664986360E-13   8.00000000000000E-01   8.00000000000000E-01
      0.00000000000000E+00  -7.08284966162562E-14   2.15710715109393E-10   2.07509551039505E-17   2.15639907363731E-10
      2.57083429757220E-13   8.00000000000000E-01   8.00000000000000E-01   0.00000000000000E+00  -3.60232657619726E-14
      4.84535031927868E-11   2.07509539226960E-17   4.84175006779787E-11   2.36081039882101E-13   0.00000000000000E+00
      0.00000000000000E+00   0.00000000000000E+00  -3.20564071598460E-12   2.90035270752770E-10   1.91956210545548E-07
      1.92243040175584E-07  -2.41227597754831E-13  -4.00000000000000E+01  -4.00000000000000E+01   0.00000000000000E+00
     -1.00238242480240E-07  -2.37119951567554E-14  -9.70358693561310E-08  -1.97274135548366E-07  -6.32477292381449E-13
      8.00000000000000E-01   8.00000000000000E-01   0.00000000000000E+00  -1.95758116472130E-13   4.55178723541930E-09
      2.07510114162365E-17   4.55159149805384E-09   1.98809755510600E-13
      3.74554829597473E-10
      8.00000000000000E-01   8.00000000000000E-01   0.00000000000000E+00  -6.99515716583577E-14   1.37520695868243E-10
      2.07509527719144E-17   1.37450765047538E-10   1.81730673465603E-13   8.00000000000000E-01   8.00000000000000E-01
      0.00000000000000E+00  -7.00466193510610E-14   1.37701618458403E-10   2.07509654051160E-17   1.37631592590018E-10
      2.57083438341624E-13   8.00000000000000E-01   8.00000000000000E-01   0.00000000000000E+00  -3.51303071216192E-14
      8.91899857656386E-12   2.07509538684742E-17   8.88388902039611E-12   2.36081041414918E-13   0.00000000000000E+00
      0.00000000000000E+00   0.00000000000000E+00  -3.24444786292464E-12   2.06779727423892E-10   1.89381410544491E-07
      1.89584945824052E-07  -2.41219888147961E-13  -4.00000000000000E+01  -4.00000000000000E+01   0.00000000000000E+00
     -9.70966614744157E-08  -2.37121004216778E-14  -9.71014708613544E-08  -1.94198156047870E-07  -6.32481342727565E-13
      8.00000000000000E-01   8.00000000000000E-01   0.00000000000000E+00  -2.03518667781610E-13   4.32944747507761E-09
      2.07509563016150E-17   4.32924397716078E-09   1.98806077653380E-13
