DF-ISE text

Info {
  version   = 1.0
  type      = xyplot
  datasets  = [
    "time"
    "Ntop OuterVoltage" "Ntop InnerVoltage" "Ntop QuasiFermiPotential" "Ntop DisplacementCurrent" "Ntop eCurrent"
    "Ntop hCurrent" "Ntop TotalCurrent" "Ntop Charge" "Ptop OuterVoltage" "Ptop InnerVoltage"
    "Ptop QuasiFermiPotential" "Ptop DisplacementCurrent" "Ptop eCurrent" "Ptop hCurrent" "Ptop TotalCurrent"
    "Ptop Charge" "Pbot OuterVoltage" "Pbot InnerVoltage" "Pbot QuasiFermiPotential" "Pbot DisplacementCurrent"
    "Pbot eCurrent" "Pbot hCurrent" "Pbot TotalCurrent" "Pbot Charge" ]
  functions = [
    Time
    OuterVoltage InnerVoltage QuasiFermiPotential DisplacementCurrent eCurrent
    hCurrent TotalCurrent Charge OuterVoltage InnerVoltage
    QuasiFermiPotential DisplacementCurrent eCurrent hCurrent TotalCurrent
    Charge OuterVoltage InnerVoltage QuasiFermiPotential DisplacementCurrent
    eCurrent hCurrent TotalCurrent Charge ]
}

Data {
      5.00000000000000E-13
      8.00000000000000E-01   8.00000000000000E-01   0.00000000000000E+00   1.19524242577535E-14   1.86466891052504E-11
     -1.75921798522258E-11   1.06646167728234E-12   2.34224766837435E-13   0.00000000000000E+00   0.00000000000000E+00
      0.00000000000000E+00  -1.11320699344289E-13  -1.97157898427484E-16   1.75481140124265E-09   1.75469988338541E-09
     -6.21801123148127E-14  -4.50000000000000E+01  -4.50000000000000E+01   0.00000000000000E+00  -1.03997600764858E-12
      3.50922341030708E-11  -1.78981860315812E-09  -1.75576634506269E-09  -1.72044654522623E-13
      1.25000000000000E-12
      8.00000000000000E-01   8.00000000000000E-01   0.00000000000000E+00   2.60308001070926E-13   8.56283695823049E-11
     -8.11756154721501E-11   4.71306211122579E-12   2.34224766838405E-13   0.00000000000000E+00   0.00000000000000E+00
      0.00000000000000E+00   1.54050007413185E-13  -1.97157898421688E-16   1.75761095838218E-09   1.75776481123169E-09
     -6.21801123132681E-14  -4.50000000000000E+01  -4.50000000000000E+01   0.00000000000000E+00  -6.00022419531602E-12
      1.61913288799778E-10  -1.91839093794738E-09  -1.76247787334292E-09  -1.72044654525137E-13
      2.37500000000000E-12
      8.00000000000000E-01   8.00000000000000E-01   0.00000000000000E+00   2.03387055390937E-12   7.17226474862295E-10
     -6.71654941457274E-10   4.76054039589305E-11   2.34224766852553E-13   0.00000000000000E+00   0.00000000000000E+00
      0.00000000000000E+00   2.61040963034615E-12  -1.97157898352323E-16   1.79193986364906E-09   1.79455007612151E-09
     -6.21801122901185E-14  -4.50000000000000E+01  -4.50000000000000E+01   0.00000000000000E+00  -6.49523129962156E-11
      1.33930145638487E-09  -3.11650462346909E-09  -1.84215548008044E-09  -1.72044654562434E-13
      4.06250000000000E-12
      8.00000000000000E-01   8.00000000000000E-01   0.00000000000000E+00   3.06053274141701E-11   1.11472542847904E-08
     -1.01891607304506E-08   9.88698881753908E-10   2.34224767268323E-13   0.00000000000000E+00   0.00000000000000E+00
      0.00000000000000E+00   3.92385800807671E-11  -1.97157896766448E-16   2.57850392433619E-09   2.61774230725906E-09
     -6.21801115895743E-14  -4.50000000000000E+01  -4.50000000000000E+01   0.00000000000000E+00  -1.37055751725987E-09
      2.03067837784696E-08  -2.25426674502227E-08  -3.60644118901296E-09  -1.72044655678749E-13
      6.59375000000000E-12
      8.00000000000000E-01   8.00000000000000E-01   0.00000000000000E+00   6.09689999963006E-10   2.32127849190204E-07
     -2.03909582331983E-07   2.88279568581836E-08   2.34224784993072E-13   0.00000000000000E+00   0.00000000000000E+00
      0.00000000000000E+00   7.91828301165401E-10  -1.97157848337318E-16   2.65722882410768E-08   2.73641163450843E-08
     -6.21800809350445E-14  -4.50000000000000E+01  -4.50000000000000E+01   0.00000000000000E+00  -4.02833811264593E-08
      4.06028822567113E-07  -4.21937514643922E-07  -5.61920732032679E-08  -1.72044704058028E-13
      1.03906250000000E-11
      8.00000000000000E-01   8.00000000000000E-01   0.00000000000000E+00   5.09791917683469E-09   2.08123570422513E-06
     -1.69718642761178E-06   3.89147195790184E-07   2.34225160806414E-13   0.00000000000000E+00   0.00000000000000E+00
      0.00000000000000E+00   6.55447813483379E-09  -1.97157210068633E-16   3.42280674345307E-07   3.48835152282984E-07
     -6.21794219031377E-14  -4.50000000000000E+01  -4.50000000000000E+01   0.00000000000000E+00  -5.44245616200361E-07
      3.37368717662103E-06  -3.56742390849383E-06  -7.37982348073164E-07  -1.72045738903276E-13
      1.60859375000000E-11
      8.00000000000000E-01   8.00000000000000E-01   0.00000000000000E+00   2.99038120272437E-09   1.86214131636540E-06
     -9.08200460189695E-07   9.56931237378429E-07   2.34227133080350E-13   0.00000000000000E+00   0.00000000000000E+00
      0.00000000000000E+00   3.06075684485515E-09  -1.97156244707039E-16   8.16873870374002E-07   8.19934627021701E-07
     -6.21760365141355E-14  -4.50000000000000E+01  -4.50000000000000E+01   0.00000000000000E+00  -1.30451877627710E-06
      1.77770123411005E-06  -2.25004832223308E-06  -1.77686586440013E-06  -1.72051096566214E-13
      2.46289062500000E-11
      8.00000000000000E-01   8.00000000000000E-01   0.00000000000000E+00   4.09549909521939E-10   1.27689761999867E-06
     -2.26910735780569E-08   1.25461609633014E-06   2.34232054809706E-13   0.00000000000000E+00   0.00000000000000E+00
      0.00000000000000E+00  -5.02485688785314E-10  -1.97155968396067E-16   9.47516816923777E-07   9.47014331037835E-07
     -6.21683563759307E-14  -4.50000000000000E+01  -4.50000000000000E+01   0.00000000000000E+00  -1.59185083259559E-06
      3.29405729051004E-09  -6.13073652062892E-07  -2.20163042736798E-06  -1.72063698433775E-13
      3.74433593750000E-11
      8.00000000000000E-01   8.00000000000000E-01   0.00000000000000E+00   2.93039820181320E-10   1.37805194480098E-06
     -1.91425915526508E-08   1.35920239306851E-06   2.34240772056912E-13   0.00000000000000E+00   0.00000000000000E+00
      0.00000000000000E+00  -3.73323493396679E-10  -1.97156162187183E-16   8.43584075037030E-07   8.43210751346477E-07
     -6.21569343148427E-14  -4.50000000000000E+01  -4.50000000000000E+01   0.00000000000000E+00  -1.55134213520197E-06
     -6.25658958603461E-15  -6.51071002956423E-07  -2.20241314441499E-06  -1.72083837742070E-13
      5.66650390625000E-11
      8.00000000000000E-01   8.00000000000000E-01   0.00000000000000E+00   1.97049062760333E-10   1.48296686827435E-06
     -1.65909320048977E-08   1.46657298533221E-06   2.34255033548528E-13   0.00000000000000E+00   0.00000000000000E+00
      0.00000000000000E+00  -2.64949166552229E-10  -1.97156374715889E-16   7.27949501569724E-07   7.27684552206015E-07
     -6.21419288376940E-14  -4.50000000000000E+01  -4.50000000000000E+01   0.00000000000000E+00  -1.49452660186497E-06
     -6.25748827136823E-15  -6.99730929415764E-07  -2.19425753753823E-06  -1.72113104710833E-13
      8.54975585937500E-11
      8.00000000000000E-01   8.00000000000000E-01   0.00000000000000E+00   1.15680822858204E-10   1.57943935196710E-06
     -1.33793946763530E-08   1.56617563811360E-06   2.34277952644166E-13   0.00000000000000E+00   0.00000000000000E+00
      0.00000000000000E+00  -1.71859496589798E-10  -1.97156586369368E-16   6.09841002265082E-07   6.09669142571335E-07
     -6.21228146939790E-14  -4.50000000000000E+01  -4.50000000000000E+01   0.00000000000000E+00  -1.42233152039006E-06
     -6.25843365836300E-15  -7.53513254036448E-07  -2.17584478068494E-06  -1.72155137950187E-13
      1.28746337890625E-10
      8.00000000000000E-01   8.00000000000000E-01   0.00000000000000E+00   5.25546680017003E-11   1.65212427388451E-06
     -9.68029339372383E-09   1.64249653515879E-06   2.34313843569942E-13   0.00000000000000E+00   0.00000000000000E+00
      0.00000000000000E+00  -9.91958743684115E-11  -1.97156772247458E-16   5.00299104006945E-07   5.00199907935420E-07
     -6.20990947817300E-14  -4.50000000000000E+01  -4.50000000000000E+01   0.00000000000000E+00  -1.33620381080252E-06
     -6.25977979755347E-15  -8.06492626031919E-07  -2.14269644309422E-06  -1.72214748788210E-13
      1.61182922363281E-10
      8.00000000000000E-01   8.00000000000000E-01   0.00000000000000E+00   2.72573433022026E-11   1.67524555323012E-06
     -7.60016568580948E-09   1.66767264488761E-06   2.34341111825363E-13   0.00000000000000E+00   0.00000000000000E+00
      0.00000000000000E+00  -7.05284111685157E-11  -1.97156850883664E-16   4.48355499391213E-07   4.48284970782887E-07
     -6.20838729482034E-14  -4.50000000000000E+01  -4.50000000000000E+01   0.00000000000000E+00  -1.28441202048379E-06
     -6.26074210369571E-15  -8.31545588925954E-07  -2.11595761567049E-06  -1.72257238877159E-13
      2.09837799072266E-10
      8.00000000000000E-01   8.00000000000000E-01   0.00000000000000E+00   6.24615825834019E-12   1.68539498607421E-06
     -5.28774647952873E-09   1.68011348575294E-06   2.34381758009568E-13   0.00000000000000E+00   0.00000000000000E+00
      0.00000000000000E+00  -4.75558421479630E-11  -1.97156916602272E-16   3.94365454193069E-07   3.94317898153765E-07
     -6.20636210850201E-14  -4.50000000000000E+01  -4.50000000000000E+01   0.00000000000000E+00  -1.21992916850982E-06
     -6.26212351088023E-15  -8.54502209134764E-07  -2.07443138390670E-06  -1.72318136924548E-13
      2.46328956604004E-10
      8.00000000000000E-01   8.00000000000000E-01   0.00000000000000E+00  -1.65601286912059E-12   1.68242399234162E-06
     -4.03677725641608E-09   1.67838555907233E-06   2.34411833577565E-13   0.00000000000000E+00   0.00000000000000E+00
      0.00000000000000E+00  -3.94440867791739E-11  -1.97156941036540E-16   3.64255200868308E-07   3.64215756584372E-07
     -6.20499396503092E-14  -4.50000000000000E+01  -4.50000000000000E+01   0.00000000000000E+00  -1.17868144509314E-06
     -6.26311715728139E-15  -8.63919864300442E-07  -2.04260131565670E-06  -1.72361893927256E-13
      3.01065692901611E-10
      8.00000000000000E-01   8.00000000000000E-01   0.00000000000000E+00  -7.25028518129787E-12   1.67102401829865E-06
     -2.69703975343500E-09   1.66831972826003E-06   2.34456167967416E-13   0.00000000000000E+00   0.00000000000000E+00
      0.00000000000000E+00  -3.42902160740916E-11  -1.97156958460728E-16   3.26005001385397E-07   3.25970710972165E-07
     -6.20312781307659E-14  -4.50000000000000E+01  -4.50000000000000E+01   0.00000000000000E+00  -1.12363701665339E-06
     -6.26454850959155E-15  -8.70653416314252E-07  -1.99429043923219E-06  -1.72424889836652E-13
      3.42118245124817E-10
      8.00000000000000E-01   8.00000000000000E-01   0.00000000000000E+00  -8.62808264045487E-12   1.66039206799836E-06
     -2.00162176253943E-09   1.65838181815318E-06   2.34488835498834E-13   0.00000000000000E+00   0.00000000000000E+00
      0.00000000000000E+00  -3.34736019479338E-11  -1.97156964607866E-16   2.99490970309586E-07   2.99457496510482E-07
     -6.20185961280828E-14  -4.50000000000000E+01  -4.50000000000000E+01   0.00000000000000E+00  -1.08589053523870E-06
     -6.26557927108950E-15  -8.71948773159378E-07  -1.95783931466366E-06  -1.72470239370752E-13
      4.03697073459625E-10
      8.00000000000000E-01   8.00000000000000E-01   0.00000000000000E+00  -8.63982633158124E-12   1.64474249528137E-06
     -1.28562746472992E-09   1.64344822799031E-06   2.34537054680135E-13   0.00000000000000E+00   0.00000000000000E+00
      0.00000000000000E+00  -3.43397887918073E-11  -1.97156973710906E-16   2.59687398849629E-07   2.59653058863680E-07
     -6.20015976359550E-14  -4.50000000000000E+01  -4.50000000000000E+01   0.00000000000000E+00  -1.03255077484214E-06
     -6.26706180250418E-15  -8.70550505744790E-07  -1.90310128685399E-06  -1.72535457044180E-13
      4.49881194710732E-10
      8.00000000000000E-01   8.00000000000000E-01   0.00000000000000E+00  -7.82673697995600E-12   1.63429867029585E-06
     -9.29892999982544E-10   1.63336095055888E-06   2.34572728225141E-13   0.00000000000000E+00   0.00000000000000E+00
      0.00000000000000E+00  -3.57591232606485E-11  -1.97156984913766E-16   2.28782106814603E-07   2.28746347494185E-07
     -6.19904709264004E-14  -4.50000000000000E+01  -4.50000000000000E+01   0.00000000000000E+00  -9.94218394600709E-07
     -6.26812568118167E-15  -8.67888897184236E-07  -1.86210729805307E-06  -1.72582257298740E-13
      4.84519285649061E-10
      8.00000000000000E-01   8.00000000000000E-01   0.00000000000000E+00  -7.02960687019165E-12   1.62747361820174E-06
     -7.33051365769817E-10   1.62673353722910E-06   2.34599279128963E-13   0.00000000000000E+00   0.00000000000000E+00
      0.00000000000000E+00  -3.69684562072774E-11  -1.97156997519892E-16   2.04734871378861E-07   2.04697902725497E-07
     -6.19830721603866E-14  -4.50000000000000E+01  -4.50000000000000E+01   0.00000000000000E+00  -9.66067169069339E-07
     -6.26889739241920E-15  -8.65364264616362E-07  -1.83143143995460E-06  -1.72616206968577E-13
      5.36476422056556E-10
      8.00000000000000E-01   8.00000000000000E-01   0.00000000000000E+00  -5.74361474982064E-12   1.61894529638886E-06
     -5.16909210536640E-10   1.61842264356357E-06   2.34638881436273E-13   0.00000000000000E+00   0.00000000000000E+00
      0.00000000000000E+00  -3.87732460209889E-11  -1.97157024830367E-16   1.67173116398457E-07   1.67134342955279E-07
     -6.19735618593017E-14  -4.50000000000000E+01  -4.50000000000000E+01   0.00000000000000E+00  -9.24493512423586E-07
     -6.27001366043252E-15  -8.61063467825248E-07  -1.78555698651885E-06  -1.72665319576972E-13
      6.14412126667798E-10
      8.00000000000000E-01   8.00000000000000E-01   0.00000000000000E+00  -3.87882827625532E-12   1.60981152943931E-06
     -3.12230174127848E-10   1.60949542043690E-06   2.34698024975822E-13   0.00000000000000E+00   0.00000000000000E+00
      0.00000000000000E+00  -4.12467208840900E-11  -1.97157087193256E-16   1.07638063819120E-07   1.07596816901078E-07
     -6.19630485731184E-14  -4.50000000000000E+01  -4.50000000000000E+01   0.00000000000000E+00  -8.63133435096189E-07
     -6.27159657564014E-15  -8.53958795970194E-07  -1.71709223733798E-06  -1.72734976402704E-13
      6.72863905126229E-10
      8.00000000000000E-01   8.00000000000000E-01   0.00000000000000E+00  -2.64885274502094E-12   1.60553744095468E-06
     -2.19405781341733E-10   1.60531538632059E-06   2.34742355082841E-13   0.00000000000000E+00   0.00000000000000E+00
      0.00000000000000E+00  -4.28040468130789E-11  -1.97157151830330E-16   6.07562016653034E-08   6.07133974213331E-08
     -6.19582568110929E-14  -4.50000000000000E+01  -4.50000000000000E+01   0.00000000000000E+00  -8.17663784921029E-07
     -6.27271260246004E-15  -8.48364992548183E-07  -1.66602878374192E-06  -1.72784098271750E-13
      7.60541572813876E-10
      8.00000000000000E-01   8.00000000000000E-01   0.00000000000000E+00  -1.17775643987668E-12   1.60243979585822E-06
     -1.34438511574409E-10   1.60230417959020E-06   2.34809110523682E-13   0.00000000000000E+00   0.00000000000000E+00
      0.00000000000000E+00  -4.45895539867493E-11  -1.97157276570917E-16  -1.23684308061329E-08  -1.24130205572769E-08
     -6.19562869821014E-14  -4.50000000000000E+01  -4.50000000000000E+01   0.00000000000000E+00  -7.50071419441512E-07
     -6.27427363380232E-15  -8.39819733317144E-07  -1.58989115903293E-06  -1.72852823541580E-13
      8.92058074345346E-10
      8.00000000000000E-01   8.00000000000000E-01   0.00000000000000E+00   1.29252365338717E-13   1.60290997363220E-06
     -7.15698390364874E-11   1.60283853304553E-06   2.34910389423586E-13   0.00000000000000E+00   0.00000000000000E+00
      0.00000000000000E+00  -4.59948720702805E-11  -1.97157501795147E-16  -1.26102428462067E-07  -1.26148423531295E-07
     -6.19655212380088E-14  -4.50000000000000E+01  -4.50000000000000E+01   0.00000000000000E+00  -6.49772816760586E-07
     -6.27636363619568E-15  -8.26917286477279E-07  -1.47669010951423E-06  -1.72944868185578E-13
      9.90695450493949E-10
      8.00000000000000E-01   8.00000000000000E-01   0.00000000000000E+00   3.44823154414499E-13   1.60528891146765E-06
     -4.94397018950156E-11   1.60523981658891E-06   2.34987539348744E-13   0.00000000000000E+00   0.00000000000000E+00
      0.00000000000000E+00  -4.59808666424724E-11  -1.97157642192399E-16  -2.12622943000493E-07  -2.12668924064293E-07
     -6.19822542494692E-14  -4.50000000000000E+01  -4.50000000000000E+01   0.00000000000000E+00  -5.75311544715027E-07
     -6.27773506109535E-15  -8.17259341531859E-07  -1.39257089252462E-06  -1.73005285099275E-13
      1.06467348260540E-09
      8.00000000000000E-01   8.00000000000000E-01   0.00000000000000E+00  -1.19538067269358E-14   1.60695452515701E-06
     -3.93057051295999E-11   1.60691520749807E-06   2.35046130977078E-13   0.00000000000000E+00   0.00000000000000E+00
      0.00000000000000E+00  -4.52642105071184E-11  -1.97157653849675E-16  -2.76944504003810E-07  -2.76989768411474E-07
     -6.20003369143521E-14  -4.50000000000000E+01  -4.50000000000000E+01   0.00000000000000E+00  -5.19881367291855E-07
     -6.27865441589300E-15  -8.10044065516091E-07  -1.32992543908660E-06  -1.73045794062726E-13
      1.17564053077258E-09
      8.00000000000000E-01   8.00000000000000E-01   0.00000000000000E+00  -1.61432569369430E-12   1.60678729140226E-06
     -2.95136779121398E-11   1.60675616339865E-06   2.35135040834592E-13   0.00000000000000E+00   0.00000000000000E+00
      0.00000000000000E+00  -4.26983916929695E-11  -1.97157221250815E-16  -3.70002875511908E-07  -3.70045574100759E-07
     -6.20361353449325E-14  -4.50000000000000E+01  -4.50000000000000E+01   0.00000000000000E+00  -4.37441532256528E-07
     -6.27985961379627E-15  -7.99269050761505E-07  -1.23671058929789E-06  -1.73098905489661E-13
      1.25886581689796E-09
      8.00000000000000E-01   8.00000000000000E-01   0.00000000000000E+00  -3.88000998440504E-12   1.60245969981552E-06
     -2.47281113463629E-11   1.60243109169419E-06   2.35202258901632E-13   0.00000000000000E+00   0.00000000000000E+00
      0.00000000000000E+00  -3.92830664542536E-11  -1.97156160200277E-16  -4.34943060041276E-07  -4.34982343304887E-07
     -6.20694966304703E-14  -4.50000000000000E+01  -4.50000000000000E+01   0.00000000000000E+00  -3.76225131294418E-07
     -6.28062782556102E-15  -7.91223610814261E-07  -1.16744874838931E-06  -1.73132762271162E-13
      1.38370374608604E-09
      8.00000000000000E-01   8.00000000000000E-01   0.00000000000000E+00  -9.44157145304878E-12   1.58355061519274E-06
     -1.97257493749423E-11   1.58352144787191E-06   2.35302872191909E-13   0.00000000000000E+00   0.00000000000000E+00
      0.00000000000000E+00  -3.10862046742353E-11  -1.97151887187974E-16  -5.18667388373766E-07  -5.18698474775592E-07
     -6.21288077145847E-14  -4.50000000000000E+01  -4.50000000000000E+01   0.00000000000000E+00  -2.85610069008051E-07
     -6.28156500346863E-15  -7.79212897806700E-07  -1.06482297309632E-06  -1.73174064477325E-13
      1.47733219297710E-09
      8.00000000000000E-01   8.00000000000000E-01   0.00000000000000E+00  -1.54576011793114E-11   1.55520850804472E-06
     -1.70423835666435E-11   1.55517600805998E-06   2.35377026744607E-13   0.00000000000000E+00   0.00000000000000E+00
      0.00000000000000E+00  -2.22480703527828E-11  -1.97144895080182E-16  -5.66032858805682E-07  -5.66055107073179E-07
     -6.21793504672627E-14  -4.50000000000000E+01  -4.50000000000000E+01   0.00000000000000E+00  -2.18871292379501E-07
     -6.28210088830216E-15  -7.70249602325192E-07  -9.89120900986794E-07  -1.73197676277345E-13
      1.61777486331368E-09
      8.00000000000000E-01   8.00000000000000E-01   0.00000000000000E+00  -2.70003968214273E-11   1.48092984134622E-06
     -1.40019017665962E-11   1.48088883904764E-06   2.35482722220786E-13   0.00000000000000E+00   0.00000000000000E+00
      0.00000000000000E+00  -5.03824504799263E-12  -1.97122796294724E-16  -6.02288765117852E-07  -6.02293803560023E-07
     -6.22611557989166E-14  -4.50000000000000E+01  -4.50000000000000E+01   0.00000000000000E+00  -1.21713601674624E-07
     -6.28264345065405E-15  -7.56881427530348E-07  -8.78595035487615E-07  -1.73221566421868E-13
      1.72310686606612E-09
      8.00000000000000E-01   8.00000000000000E-01   0.00000000000000E+00  -3.67104748850065E-11   1.39603896150422E-06
     -1.22481070973065E-11   1.39599000292223E-06   2.35554739292483E-13   0.00000000000000E+00   0.00000000000000E+00
      0.00000000000000E+00   9.87379194980449E-12  -1.97091955770047E-16  -5.96925819975265E-07  -5.96915946380408E-07
     -6.23240320052278E-14  -4.50000000000000E+01  -4.50000000000000E+01   0.00000000000000E+00  -5.21542033184975E-08
     -6.28285151385155E-15  -7.46919846940476E-07  -7.99074056541825E-07  -1.73230707287254E-13
      1.88110487019478E-09
      8.00000000000000E-01   8.00000000000000E-01   0.00000000000000E+00  -4.98969097686818E-11   1.22135575808107E-06
     -1.01679565220324E-11   1.22129569321478E-06   2.35644406861199E-13   0.00000000000000E+00   0.00000000000000E+00
      0.00000000000000E+00   3.14895464568238E-11  -1.97009717072580E-16  -5.33425740686175E-07  -5.33394251336728E-07
     -6.24131474891245E-14  -4.50000000000000E+01  -4.50000000000000E+01   0.00000000000000E+00   4.41958148958363E-08
     -6.28286551041717E-15  -7.32097250491024E-07  -6.87901441878053E-07  -1.73231259372074E-13
      1.99960337329127E-09
      8.00000000000000E-01   8.00000000000000E-01   0.00000000000000E+00  -5.65464885350442E-11   1.05997927786476E-06
     -8.93158873136937E-12   1.05991379978749E-06   2.35693153444320E-13   0.00000000000000E+00   0.00000000000000E+00
      0.00000000000000E+00   4.41240508073838E-11  -1.96911154427275E-16  -4.47183576538785E-07  -4.47139452684888E-07
     -6.24709709304744E-14  -4.50000000000000E+01  -4.50000000000000E+01   0.00000000000000E+00   1.08313271236514E-07
     -6.28266101226254E-15  -7.21087612056456E-07  -6.12774347102602E-07  -1.73222182513846E-13
      2.17735112793601E-09
      8.00000000000000E-01   8.00000000000000E-01   0.00000000000000E+00  -5.83639920735109E-11   7.97227326105822E-07
     -7.44912442076711E-12   7.97161512989327E-07   2.35731025503687E-13   0.00000000000000E+00   0.00000000000000E+00
      0.00000000000000E+00   5.27900732034796E-11  -1.96692484655962E-16  -2.80854428207007E-07  -2.80801638330496E-07
     -6.25353698600704E-14  -4.50000000000000E+01  -4.50000000000000E+01   0.00000000000000E+00   1.88421567273304E-07
     -6.28206172883346E-15  -7.04781435650071E-07  -5.16359874658829E-07  -1.73195655643616E-13
      2.31066194391957E-09
      8.00000000000000E-01   8.00000000000000E-01   0.00000000000000E+00  -5.33221495448719E-11   6.06393913789952E-07
     -6.56430692683162E-12   6.06334027333480E-07   2.35731076500793E-13   0.00000000000000E+00   0.00000000000000E+00
      0.00000000000000E+00   5.06862221941233E-11  -1.96473097215437E-16  -1.48777519352560E-07  -1.48726833326839E-07
     -6.25637180516182E-14  -4.50000000000000E+01  -4.50000000000000E+01   0.00000000000000E+00   2.35133061278555E-07
     -6.28142183225120E-15  -6.92740249003775E-07  -4.57607194006642E-07  -1.73167358449175E-13
      2.41064505590723E-09
      8.00000000000000E-01   8.00000000000000E-01   0.00000000000000E+00  -4.68563086475368E-11   4.78311509929478E-07
     -5.99870127846084E-12   4.78258654919552E-07   2.35716298001937E-13   0.00000000000000E+00   0.00000000000000E+00
      0.00000000000000E+00   4.51964611765041E-11  -1.96281941929480E-16  -5.74055736835527E-08  -5.73603774186581E-08
     -6.25738634943965E-14  -4.50000000000000E+01  -4.50000000000000E+01   0.00000000000000E+00   2.62929708283289E-07
     -6.28085797606437E-15  -6.83827979503324E-07  -4.20898277500893E-07  -1.73142434507542E-13
      2.56061972388873E-09
      8.00000000000000E-01   8.00000000000000E-01   0.00000000000000E+00  -3.52784606469045E-11   3.20872985118759E-07
     -5.27236821999706E-12   3.20832434289893E-07   2.35674304009214E-13   0.00000000000000E+00   0.00000000000000E+00
      0.00000000000000E+00   3.36553871887411E-11  -1.95966587814151E-16   5.51880697454558E-08   5.52217249366780E-08
     -6.25737468004855E-14  -4.50000000000000E+01  -4.50000000000000E+01   0.00000000000000E+00   2.94603329652320E-07
     -6.27991025241622E-15  -6.70657482598980E-07  -3.76054159226571E-07  -1.73100557208730E-13
      2.67310072487486E-09
      8.00000000000000E-01   8.00000000000000E-01   0.00000000000000E+00  -2.66570916546623E-11   2.31974908426605E-07
     -4.80483875898192E-12   2.31943446496191E-07   2.35630410003237E-13   0.00000000000000E+00   0.00000000000000E+00
      0.00000000000000E+00   2.43711171286591E-11  -1.95718886396667E-16   1.17064840488653E-07   1.17089211410063E-07
     -6.25639847481143E-14  -4.50000000000000E+01  -4.50000000000000E+01   0.00000000000000E+00   3.11893348722616E-07
     -6.27913757431526E-15  -6.60926000349734E-07  -3.49032657906255E-07  -1.73066425255124E-13
      2.84182222635405E-09
      8.00000000000000E-01   8.00000000000000E-01   0.00000000000000E+00  -1.60021311224443E-11   1.40521523967638E-07
     -4.19650710626282E-12   1.40501325329410E-07   2.35551334173490E-13   0.00000000000000E+00   0.00000000000000E+00
      0.00000000000000E+00   1.24241980889594E-11  -1.95352778920221E-16   1.75431680115731E-07   1.75444104118467E-07
     -6.25391565054136E-14  -4.50000000000000E+01  -4.50000000000000E+01   0.00000000000000E+00   3.30546091769207E-07
     -6.27790915842853E-15  -6.46491514939175E-07  -3.15945429447878E-07  -1.73012177668076E-13
      2.96836335246344E-09
      8.00000000000000E-01   8.00000000000000E-01   0.00000000000000E+00  -1.02935660747719E-11   9.81209671023499E-08
     -3.79852383404167E-12   9.81068750124411E-08   2.35485348736005E-13   0.00000000000000E+00   0.00000000000000E+00
      0.00000000000000E+00   5.82889180812306E-12  -1.95094978257380E-16   1.97030276990642E-07   1.97036105687355E-07
     -6.25156454162592E-14  -4.50000000000000E+01  -4.50000000000000E+01   0.00000000000000E+00   3.40550699805586E-07
     -6.27694706983160E-15  -6.35693674228435E-07  -2.95142980699796E-07  -1.72969703319746E-13
      3.15817504162752E-09
      8.00000000000000E-01   8.00000000000000E-01   0.00000000000000E+00  -5.01991324129618E-12   6.13682255185386E-08
     -3.27349144672089E-12   6.13599321138505E-08   2.35381444361570E-13   0.00000000000000E+00   0.00000000000000E+00
      0.00000000000000E+00  -3.70846668085610E-13  -1.94751650472248E-16   2.06129779526551E-07   2.06129408485131E-07
     -6.24774688572167E-14  -4.50000000000000E+01  -4.50000000000000E+01   0.00000000000000E+00   3.51690776081179E-07
     -6.27545784697253E-15  -6.19180110404702E-07  -2.67489340598982E-07  -1.72903975504353E-13
      3.30053380850059E-09
      8.00000000000000E-01   8.00000000000000E-01   0.00000000000000E+00  -2.94358710619361E-12   4.68346533065799E-08
     -2.92723099460645E-12   4.68287824884791E-08   2.35302094284656E-13   0.00000000000000E+00   0.00000000000000E+00
      0.00000000000000E+00  -2.83541195385792E-12  -1.94532228347177E-16   2.01535605226982E-07   2.01532769620496E-07
     -6.24486321016116E-14  -4.50000000000000E+01  -4.50000000000000E+01   0.00000000000000E+00   3.57829809475724E-07
     -6.27431302836130E-15  -6.06191355310387E-07  -2.48361552108975E-07  -1.72853462183045E-13
      3.51407195881018E-09
      8.00000000000000E-01   8.00000000000000E-01   0.00000000000000E+00  -1.45631030152110E-12   3.48314523129460E-08
     -2.47163776408089E-12   3.48275243648804E-08   2.35183909867123E-13   0.00000000000000E+00   0.00000000000000E+00
      0.00000000000000E+00  -4.55445186462855E-12  -1.94261897988746E-16   1.86140123479859E-07   1.86135568833733E-07
     -6.24075339328988E-14  -4.50000000000000E+01  -4.50000000000000E+01   0.00000000000000E+00   3.63803488739530E-07
     -6.27256548941059E-15  -5.84766575665577E-07  -2.20963093198612E-07  -1.72776375934223E-13
      3.67422557154238E-09
      8.00000000000000E-01   8.00000000000000E-01   0.00000000000000E+00  -1.00575306782424E-12   2.96576748345130E-08
     -2.17455117089877E-12   2.96544945302743E-08   2.35097134705002E-13   0.00000000000000E+00   0.00000000000000E+00
      0.00000000000000E+00  -4.99196728381203E-12  -1.94099840936280E-16   1.71479559181508E-07   1.71474567020124E-07
     -6.23791639984770E-14  -4.50000000000000E+01  -4.50000000000000E+01   0.00000000000000E+00   3.65310210257982E-07
     -6.27124108730694E-15  -5.66439265537140E-07  -2.01129061550399E-07  -1.72717970706524E-13
      3.91445599064068E-09
      8.00000000000000E-01   8.00000000000000E-01   0.00000000000000E+00  -7.16109539737396E-13   2.42023531992010E-08
     -1.79108221413656E-12   2.41998460074471E-08   2.34971772622323E-13   0.00000000000000E+00   0.00000000000000E+00
      0.00000000000000E+00  -5.08511886904782E-12  -1.93908787195075E-16   1.48284981866034E-07   1.48279896553256E-07
     -6.23411759295956E-14  -4.50000000000000E+01  -4.50000000000000E+01   0.00000000000000E+00   3.61402120500117E-07
     -6.26925924252905E-15  -5.33881856791561E-07  -1.72479742560703E-07  -1.72630596692728E-13
      4.09462880496440E-09
      8.00000000000000E-01   8.00000000000000E-01   0.00000000000000E+00  -6.01799022411143E-13   2.09880078929828E-08
     -1.54691993626450E-12   2.09858591740241E-08   2.34882554357408E-13   0.00000000000000E+00   0.00000000000000E+00
      0.00000000000000E+00  -4.92692057144232E-12  -1.93798859591267E-16   1.31052538684771E-07   1.31047611570401E-07
     -6.23163374076815E-14  -4.50000000000000E+01  -4.50000000000000E+01   0.00000000000000E+00   3.52793124926548E-07
     -6.26779854949995E-15  -5.04826589403175E-07  -1.52033470744426E-07  -1.72566216949727E-13
      4.22975841570719E-09
      8.00000000000000E-01   8.00000000000000E-01   0.00000000000000E+00  -5.66785581017163E-13   1.88416680590229E-08
     -1.38527957610309E-12   1.88397159938658E-08   2.34818912907389E-13   0.00000000000000E+00   0.00000000000000E+00