DF-ISE text

Info {
  version   = 1.0
  type      = xyplot
  datasets  = [
    "time"
    "Ntop OuterVoltage" "Ntop InnerVoltage" "Ntop QuasiFermiPotential" "Ntop DisplacementCurrent" "Ntop eCurrent"
    "Ntop hCurrent" "Ntop TotalCurrent" "Ntop Charge" "Ptop OuterVoltage" "Ptop InnerVoltage"
    "Ptop QuasiFermiPotential" "Ptop DisplacementCurrent" "Ptop eCurrent" "Ptop hCurrent" "Ptop TotalCurrent"
    "Ptop Charge" "Pbot OuterVoltage" "Pbot InnerVoltage" "Pbot QuasiFermiPotential" "Pbot DisplacementCurrent"
    "Pbot eCurrent" "Pbot hCurrent" "Pbot TotalCurrent" "Pbot Charge" ]
  functions = [
    Time
    OuterVoltage InnerVoltage QuasiFermiPotential DisplacementCurrent eCurrent
    hCurrent TotalCurrent Charge OuterVoltage InnerVoltage
    QuasiFermiPotential DisplacementCurrent eCurrent hCurrent TotalCurrent
    Charge OuterVoltage InnerVoltage QuasiFermiPotential DisplacementCurrent
    eCurrent hCurrent TotalCurrent Charge ]
}

Data {
      5.00000000000000E-13
      8.00000000000000E-01   8.00000000000000E-01   0.00000000000000E+00   2.07625789185713E-15   1.85205631213689E-13
      2.07551466337173E-17   1.87302644252180E-13   1.71121898737625E-13   0.00000000000000E+00   0.00000000000000E+00
      0.00000000000000E+00  -1.07074641214330E-13  -1.96738351505624E-16   1.63231220156785E-07   1.63231112885405E-07
     -4.72084923834344E-14  -1.70000000000000E+01  -1.70000000000000E+01   0.00000000000000E+00  -3.12477238845088E-13
      1.45908466235803E-11  -1.63245578557433E-07  -1.63231300188049E-07  -1.23913406354190E-13
      1.25000000000000E-12
      8.00000000000000E-01   8.00000000000000E-01   0.00000000000000E+00   3.35002895950224E-14   5.78103594358302E-13
      2.07550873900465E-17   6.11624639040714E-13   1.71121898736783E-13   0.00000000000000E+00   0.00000000000000E+00
      0.00000000000000E+00   2.30541468028901E-14  -1.96738351501812E-16   1.63232789176362E-07   1.63232812033770E-07
     -4.72084923818067E-14  -1.70000000000000E+01  -1.70000000000000E+01   0.00000000000000E+00  -1.87323674005436E-12
      6.73299466923792E-11  -1.63298880368361E-07  -1.63233423658409E-07  -1.23913406354975E-13
      2.37500000000000E-12
      8.00000000000000E-01   8.00000000000000E-01   0.00000000000000E+00   2.18180287984694E-13   5.26648302909161E-12
      2.07550941406293E-17   5.48468407217045E-12   1.71121898724211E-13   0.00000000000000E+00   0.00000000000000E+00
      0.00000000000000E+00   1.49736468454277E-12  -1.96738351497358E-16   1.63251716752000E-07   1.63253213919947E-07
     -4.72084923575123E-14  -1.70000000000000E+01  -1.70000000000000E+01   0.00000000000000E+00  -2.04899917164669E-11
      5.56952056669223E-10  -1.63795160668971E-07  -1.63258698604018E-07  -1.23913406366699E-13
      4.06250000000000E-12
      8.00000000000000E-01   8.00000000000000E-01   0.00000000000000E+00   3.15334904466374E-12   1.06348227403711E-10
      2.07551546123409E-17   1.09501597203530E-10   1.71121898346347E-13   0.00000000000000E+00   0.00000000000000E+00
      0.00000000000000E+00   2.21900180537357E-11  -1.96738350494184E-16   1.63689177528819E-07   1.63711367350135E-07
     -4.72084916265051E-14  -1.70000000000000E+01  -1.70000000000000E+01   0.00000000000000E+00  -4.35355609686588E-10
      8.44466400347416E-09  -1.71830177341126E-07  -1.63820868947338E-07  -1.23913406719842E-13
      6.59375000000000E-12
      8.00000000000000E-01   8.00000000000000E-01   0.00000000000000E+00   6.05460319306817E-11   3.02088064647993E-09
      2.07552446162358E-17   3.08142669916585E-09   1.71121881972582E-13   0.00000000000000E+00   0.00000000000000E+00
      0.00000000000000E+00   4.51946346630120E-10  -1.96738332224792E-16   1.77137298795626E-07   1.77589244945517E-07
     -4.72084598256740E-14  -1.70000000000000E+01  -1.70000000000000E+01   0.00000000000000E+00  -1.28967635872528E-08
      1.68848890660205E-07  -3.36622798717635E-07  -1.80670671644683E-07  -1.23913422146908E-13
      1.03906250000000E-11
      8.00000000000000E-01   8.00000000000000E-01   0.00000000000000E+00   4.87824230550650E-10   3.94173937814678E-08
      2.07567900056412E-17   3.99052180327752E-08   1.71121532981400E-13   0.00000000000000E+00   0.00000000000000E+00
      0.00000000000000E+00   3.80713905753005E-09  -1.96738053923823E-16   3.56856027462012E-07   3.60663166322804E-07
     -4.72077776680998E-14  -1.70000000000000E+01  -1.70000000000000E+01   0.00000000000000E+00  -1.75816024604273E-07
      1.40296282606918E-06  -1.62771518582049E-06  -4.00568384355579E-07  -1.23913755313300E-13
      1.60859375000000E-11
      8.00000000000000E-01   8.00000000000000E-01   0.00000000000000E+00   2.50839600773461E-10   9.00990864272090E-08
      2.07555739242917E-17   9.03499260487380E-08   1.71119741357501E-13   0.00000000000000E+00   0.00000000000000E+00
      0.00000000000000E+00   2.04759099798558E-09  -1.96737094698170E-16   6.49115821006499E-07   6.51163411807747E-07
     -4.72042354090835E-14  -1.70000000000000E+01  -1.70000000000000E+01   0.00000000000000E+00  -4.28415588064644E-07
      7.39264968235130E-07  -1.05236271802697E-06  -7.41513337856486E-07  -1.23915505948417E-13
      2.46289062500000E-11
      8.00000000000000E-01   8.00000000000000E-01   0.00000000000000E+00   1.14396857896344E-11   1.11008716045766E-07
      2.07554479309188E-17   1.11020155752311E-07   1.71115650309431E-13   0.00000000000000E+00   0.00000000000000E+00
      0.00000000000000E+00  -1.65799447339022E-12  -1.96736772019679E-16   7.73069760163847E-07   7.73068101972637E-07
     -4.71959752033313E-14  -1.70000000000000E+01  -1.70000000000000E+01   0.00000000000000E+00  -5.29506255018431E-07
      1.36984597106545E-09  -3.55951848677581E-07  -8.84088257724946E-07  -1.23919675106099E-13
      3.74433593750000E-11
      8.00000000000000E-01   8.00000000000000E-01   0.00000000000000E+00   1.57137496997786E-11   1.15628545684464E-07
      2.07551884292258E-17   1.15644259454919E-07   1.71109487226879E-13   0.00000000000000E+00   0.00000000000000E+00
      0.00000000000000E+00  -3.19711667328505E-11  -1.96734989473784E-16   7.68777682656536E-07   7.68745711293069E-07
     -4.71830871953072E-14  -1.70000000000000E+01  -1.70000000000000E+01   0.00000000000000E+00  -5.19687915180492E-07
     -5.01680741062461E-15  -3.64702050550686E-07  -8.84389970747985E-07  -1.23926400031573E-13
      5.66650390625000E-11
      8.00000000000000E-01   8.00000000000000E-01   0.00000000000000E+00   1.63168782545554E-11   1.23782451392305E-07
      2.07553173796633E-17   1.23798768291315E-07   1.71101272164073E-13   0.00000000000000E+00   0.00000000000000E+00
      0.00000000000000E+00  -4.09921807918570E-11  -1.96683923969247E-16   7.55120466065090E-07   7.55079473687614E-07
     -4.71650572749135E-14  -1.70000000000000E+01  -1.70000000000000E+01   0.00000000000000E+00  -5.01533378983499E-07
     -5.01727407475543E-15  -3.77344857978154E-07  -8.78878241978927E-07  -1.23936214889160E-13
      8.54975585937500E-11
      8.00000000000000E-01   8.00000000000000E-01   0.00000000000000E+00   2.16921163570352E-11   1.38459619984116E-07
      2.07553302902630E-17   1.38481312121228E-07   1.71090741496120E-13   0.00000000000000E+00   0.00000000000000E+00
      0.00000000000000E+00  -5.44630503066775E-11  -1.95602176260271E-16   7.28735269344808E-07   7.28680806098899E-07
     -4.71404533968915E-14  -1.70000000000000E+01  -1.70000000000000E+01   0.00000000000000E+00  -4.74785262161221E-07
     -5.01773209865450E-15  -3.92376851041174E-07  -8.67162118220128E-07  -1.23950288099229E-13
      1.28746337890625E-10
      8.00000000000000E-01   8.00000000000000E-01   0.00000000000000E+00   3.26628347949003E-11   1.70361018666144E-07
      2.07558474925510E-17   1.70393681521694E-07   1.71078138894302E-13   0.00000000000000E+00   0.00000000000000E+00
      0.00000000000000E+00  -7.23624028835677E-11  -1.77753285272277E-16   6.76467669547206E-07   6.76395306966569E-07
     -4.71081189625776E-14  -1.70000000000000E+01  -1.70000000000000E+01   0.00000000000000E+00  -4.38111074196930E-07
     -5.01833321136558E-15  -4.08677909273000E-07  -8.46788988488264E-07  -1.23970019931724E-13
      1.93619506835937E-10
      8.00000000000000E-01   8.00000000000000E-01   0.00000000000000E+00   4.36054945926632E-11   2.38028128739366E-07
      2.07557177624193E-17   2.38071734254715E-07   1.71065529942902E-13   0.00000000000000E+00   0.00000000000000E+00
      0.00000000000000E+00  -8.75926614478443E-11   3.60609967117227E-17   5.77551127378343E-07   5.77463534752956E-07
     -4.70686178061618E-14  -1.70000000000000E+01  -1.70000000000000E+01   0.00000000000000E+00  -3.91766342846874E-07
     -5.01913377245018E-15  -4.23768921141661E-07  -8.15535269007669E-07  -1.23996912136741E-13
      2.42274383544922E-10
      8.00000000000000E-01   8.00000000000000E-01   0.00000000000000E+00   4.55929434286940E-11   2.96883475021535E-07
      2.07560293546430E-17   2.96929067985720E-07   1.71060808210281E-13   0.00000000000000E+00   0.00000000000000E+00
      0.00000000000000E+00  -8.98721796730398E-11   5.72263703098826E-16   4.95779386380329E-07   4.95689514772919E-07
     -4.70455552295108E-14  -1.70000000000000E+01  -1.70000000000000E+01   0.00000000000000E+00  -3.62448783406261E-07
     -5.01967792808928E-15  -4.30169794332698E-07  -7.92618582758637E-07  -1.24015252980769E-13
      3.15256698608398E-10
      8.00000000000000E-01   8.00000000000000E-01   0.00000000000000E+00   4.09837508252176E-11   3.82669939928989E-07
      2.07563027777290E-17   3.82710923700571E-07   1.71060816781084E-13   0.00000000000000E+00   0.00000000000000E+00
      0.00000000000000E+00  -8.33981078737860E-11   2.62237976240253E-15   3.75853152094829E-07   3.75769756609335E-07
     -4.70205500641674E-14  -1.70000000000000E+01  -1.70000000000000E+01   0.00000000000000E+00  -3.23357164616037E-07
     -5.02042087975025E-15  -4.35123510673447E-07  -7.58480680309905E-07  -1.24040266716916E-13
      3.69993434906006E-10
      8.00000000000000E-01   8.00000000000000E-01   0.00000000000000E+00   3.37477792466810E-11   4.37887116806389E-07
      2.07565680249950E-17   4.37920864606393E-07   1.71065743691773E-13   0.00000000000000E+00   0.00000000000000E+00
      0.00000000000000E+00  -7.37039941899649E-11   5.52861119117154E-15   2.94557871377266E-07   2.94484172911687E-07
     -4.70085300485259E-14  -1.70000000000000E+01  -1.70000000000000E+01   0.00000000000000E+00  -2.95919079124127E-07
     -5.02092468346716E-15  -4.36485953373027E-07  -7.32405037518079E-07  -1.24057213643249E-13
      4.11045987129211E-10
      8.00000000000000E-01   8.00000000000000E-01   0.00000000000000E+00   2.74570993755403E-11   4.71738937423100E-07
      2.07566840337653E-17   4.71766394543232E-07   1.71071701019412E-13   0.00000000000000E+00   0.00000000000000E+00
      0.00000000000000E+00  -6.53374987031196E-11   8.62853752343884E-15   2.40641446956881E-07   2.40576118086715E-07
     -4.70027552540298E-14  -1.70000000000000E+01  -1.70000000000000E+01   0.00000000000000E+00  -2.75652166940616E-07
     -5.02127354416486E-15  -4.36690340668057E-07  -7.12342512629946E-07  -1.24068945765382E-13
      4.72624815464020E-10
      8.00000000000000E-01   8.00000000000000E-01   0.00000000000000E+00   1.82044566263492E-11   5.09554171437012E-07
      2.07569433354028E-17   5.09572375914396E-07   1.71083388717175E-13   0.00000000000000E+00   0.00000000000000E+00
      0.00000000000000E+00  -5.30246163597616E-11   1.48283874940009E-14   1.71850306998421E-07   1.71797297210449E-07
     -4.69984052400158E-14  -1.70000000000000E+01  -1.70000000000000E+01   0.00000000000000E+00  -2.45214625152810E-07
     -5.02175040854958E-15  -4.36155042950283E-07  -6.81369673124843E-07  -1.24084983477159E-13
      5.18808936715126E-10
      8.00000000000000E-01   8.00000000000000E-01   0.00000000000000E+00   1.20672957328593E-11   5.28357265116682E-07
      2.07569590591075E-17   5.28369332433172E-07   1.71093765028610E-13   0.00000000000000E+00   0.00000000000000E+00
      0.00000000000000E+00  -4.48055047427581E-11   2.06731968591475E-14   1.29211263985305E-07   1.29166479153759E-07
     -4.69979868120280E-14  -1.70000000000000E+01  -1.70000000000000E+01   0.00000000000000E+00  -2.22238769489342E-07
     -5.02207130772551E-15  -4.35297037075517E-07  -6.57535811586930E-07  -1.24095778216583E-13
      5.88085118591785E-10
      8.00000000000000E-01   8.00000000000000E-01   0.00000000000000E+00   4.75014572626559E-12   5.43927863863314E-07
      2.07570147425827E-17   5.43932614029797E-07   1.71110903755120E-13   0.00000000000000E+00   0.00000000000000E+00
      0.00000000000000E+00  -3.48289436275249E-11   3.12043867865145E-14   7.72761910772925E-08   7.72413933380517E-08
     -4.70009291074713E-14  -1.70000000000000E+01  -1.70000000000000E+01   0.00000000000000E+00  -1.87606223941215E-07
     -5.02249317515325E-15  -4.33567778404141E-07  -6.21174007367849E-07  -1.24109974647649E-13
      6.91999391406774E-10
      8.00000000000000E-01   8.00000000000000E-01   0.00000000000000E+00  -2.39234487159897E-12   5.46919734017700E-07
      2.07570336172835E-17   5.46917341693585E-07   1.71138194521478E-13   0.00000000000000E+00   0.00000000000000E+00
      0.00000000000000E+00  -2.44315761868305E-11   5.03388109152442E-14   1.96003581248516E-08   1.95759768874756E-08
     -4.70114075606759E-14  -1.70000000000000E+01  -1.70000000000000E+01   0.00000000000000E+00  -1.36080447483734E-07
     -5.02299246250977E-15  -4.30412866074333E-07  -5.66493318581060E-07  -1.24126786960802E-13
      7.69935096018016E-10
      8.00000000000000E-01   8.00000000000000E-01   0.00000000000000E+00  -5.69907612949908E-12   5.38459909634926E-07
      2.07570489067224E-17   5.38454210579553E-07   1.71158760363176E-13   0.00000000000000E+00   0.00000000000000E+00
      0.00000000000000E+00  -1.88515283739789E-11   6.66911163960435E-14  -1.20037249936079E-08  -1.20225098308655E-08
     -4.70228330892063E-14  -1.70000000000000E+01  -1.70000000000000E+01   0.00000000000000E+00  -9.86132335864307E-08
     -5.02326370707775E-15  -4.27818462138996E-07  -5.26431700748690E-07  -1.24135927273969E-13
      8.86838652934879E-10
      8.00000000000000E-01   8.00000000000000E-01   0.00000000000000E+00  -9.41510832878488E-12   5.14751826766489E-07
      2.07569526636295E-17   5.14742411678917E-07   1.71188215641114E-13   0.00000000000000E+00   0.00000000000000E+00
      0.00000000000000E+00  -1.12382211196685E-11   9.28813273481304E-14  -4.47926635756420E-08  -4.48038089154343E-08
     -4.70438540365667E-14  -1.70000000000000E+01  -1.70000000000000E+01   0.00000000000000E+00  -4.61564515941624E-08
     -5.02351378785475E-15  -4.23782146145806E-07  -4.69938602763482E-07  -1.24144361604547E-13
      9.74516320622526E-10
      8.00000000000000E-01   8.00000000000000E-01   0.00000000000000E+00  -1.19845220207464E-11   4.89560596480368E-07
      2.07569033135409E-17   4.89548611979105E-07   1.71208498135158E-13   0.00000000000000E+00   0.00000000000000E+00
      0.00000000000000E+00  -5.20089740916336E-12   1.12696072825970E-13  -5.80141941150081E-08  -5.80192823163445E-08
     -4.70616531729406E-14  -1.70000000000000E+01  -1.70000000000000E+01   0.00000000000000E+00  -1.08340006636496E-08
     -5.02358727550320E-15  -4.20695323975523E-07  -4.31529329662760E-07  -1.24146844962217E-13
      1.10603282215400E-09
      8.00000000000000E-01   8.00000000000000E-01   0.00000000000000E+00  -1.56672032708410E-11   4.40491272874279E-07
      2.07567443123279E-17   4.40475605691765E-07   1.71234693585413E-13   0.00000000000000E+00   0.00000000000000E+00
      0.00000000000000E+00   4.11950675967787E-12   1.40303109745076E-13  -5.86785780972692E-08  -5.86743182873998E-08
     -4.70894402591065E-14  -1.70000000000000E+01  -1.70000000000000E+01   0.00000000000000E+00   3.41770106546995E-08
     -5.02353979675160E-15  -4.15978293035525E-07  -3.81801287404365E-07  -1.24145253326306E-13
      1.20467019830260E-09
      8.00000000000000E-01   8.00000000000000E-01   0.00000000000000E+00  -1.78230683962217E-11   3.95798711390850E-07
      2.07565752708116E-17   3.95780888343210E-07   1.71250220222263E-13   0.00000000000000E+00   0.00000000000000E+00
      0.00000000000000E+00   1.02540775279909E-11   1.57972160677831E-13  -4.48033921818491E-08  -4.47929801321604E-08
     -4.71097010521440E-14  -1.70000000000000E+01  -1.70000000000000E+01   0.00000000000000E+00   6.13326793380271E-08
     -5.02339920767928E-15  -4.12320582525677E-07  -3.50987908211050E-07  -1.24140519170120E-13
      1.35262626252550E-09
      8.00000000000000E-01   8.00000000000000E-01   0.00000000000000E+00  -1.91005938689892E-11   3.21478818366426E-07
      2.07562782881004E-17   3.21459717793314E-07   1.71265671884259E-13   0.00000000000000E+00   0.00000000000000E+00
      0.00000000000000E+00   1.60177486653524E-11   1.77574177768527E-13  -7.19883771411343E-09  -7.18264239127031E-09
     -4.71365767417889E-14  -1.70000000000000E+01  -1.70000000000000E+01   0.00000000000000E+00   9.21457757199808E-08
     -5.02306017946378E-15  -4.06422846098965E-07  -3.14277075402044E-07  -1.24129095142470E-13
      1.46359331069268E-09
      8.00000000000000E-01   8.00000000000000E-01   0.00000000000000E+00  -1.83347280499746E-11   2.65075526444772E-07
      2.07560986264835E-17   2.65057191737478E-07   1.71270813211767E-13   0.00000000000000E+00   0.00000000000000E+00
      0.00000000000000E+00   1.71762085124695E-11   1.86228687910910E-13   2.78827249257963E-08   2.79000873629967E-08
     -4.71528747900374E-14  -1.70000000000000E+01  -1.70000000000000E+01   0.00000000000000E+00   1.08501916411290E-07
     -5.02272918413740E-15  -4.01459190489036E-07  -2.92957279100475E-07  -1.24117938421729E-13
      1.63004388294345E-09
      8.00000000000000E-01   8.00000000000000E-01   0.00000000000000E+00  -1.51586230518092E-11   1.89236935891429E-07
      2.07558054511905E-17   1.89221777289133E-07   1.71268935116787E-13   0.00000000000000E+00   0.00000000000000E+00
      0.00000000000000E+00   1.49378486723207E-11   1.89661074233295E-13   7.87386795009147E-08   7.87538070106612E-08
     -4.71704600892313E-14  -1.70000000000000E+01  -1.70000000000000E+01   0.00000000000000E+00   1.24602888271952E-07
     -5.02215190212384E-15  -3.92578467549594E-07  -2.67975584299794E-07  -1.24098475027555E-13
      1.75488181213153E-09
      8.00000000000000E-01   8.00000000000000E-01   0.00000000000000E+00  -1.20560472599143E-11   1.43171745043848E-07
      2.07556531249150E-17   1.43159689017344E-07   1.71261250207220E-13   0.00000000000000E+00   0.00000000000000E+00
      0.00000000000000E+00   1.15915642900188E-11   1.85608691802613E-13   1.09919464271328E-07   1.09931241444310E-07
     -4.71787702157587E-14  -1.70000000000000E+01  -1.70000000000000E+01   0.00000000000000E+00   1.31306603786979E-07
     -5.02167764963304E-15  -3.84397529226956E-07  -2.53090930461654E-07  -1.24082479991461E-13
      1.94213870591364E-09
      8.00000000000000E-01   8.00000000000000E-01   0.00000000000000E+00  -7.76994331615214E-12   9.30427168853499E-08
      2.07554557544761E-17   9.30349469627892E-08   1.71243083912677E-13   0.00000000000000E+00   0.00000000000000E+00
      0.00000000000000E+00   6.53015536589984E-12   1.71675572007394E-13   1.41572794776829E-07   1.41579496607767E-07
     -4.71855459406326E-14  -1.70000000000000E+01  -1.70000000000000E+01   0.00000000000000E+00   1.34431443378974E-07
     -5.02093850998281E-15  -3.69045881928591E-07  -2.34614443570556E-07  -1.24057537972044E-13
      2.08258137625022E-09
      8.00000000000000E-01   8.00000000000000E-01   0.00000000000000E+00  -5.34304827616941E-12   6.81724792892917E-08
      2.07553440922083E-17   6.81671362617709E-08   1.71226484085710E-13   0.00000000000000E+00   0.00000000000000E+00
      0.00000000000000E+00   3.62715093285320E-12   1.57074143805971E-13   1.54774371888719E-07   1.54778156113796E-07
     -4.71876781620236E-14  -1.70000000000000E+01  -1.70000000000000E+01   0.00000000000000E+00   1.32006344787695E-07
     -5.02038378760928E-15  -3.54951632142878E-07  -2.22945292375567E-07  -1.24038805923686E-13
      2.29324538175510E-09
      8.00000000000000E-01   8.00000000000000E-01   0.00000000000000E+00  -3.01643690578810E-12   4.45824631097268E-08
      2.07553198267711E-17   4.45794466935763E-08   1.71200636914811E-13   0.00000000000000E+00   0.00000000000000E+00
      0.00000000000000E+00   1.01357412651468E-12   1.32361458984281E-13   1.63504996178886E-07   1.63506142114472E-07
     -4.71886505634571E-14  -1.70000000000000E+01  -1.70000000000000E+01   0.00000000000000E+00   1.22038289691392E-07
     -5.01959029801619E-15  -3.30123873479849E-07  -2.08085588808047E-07  -1.24011986351354E-13
      2.45124338588376E-09
      8.00000000000000E-01   8.00000000000000E-01   0.00000000000000E+00  -2.03666892502019E-12   3.38053922011599E-08
      2.07552844104666E-17   3.38033555529902E-08   1.71182240720407E-13   0.00000000000000E+00   0.00000000000000E+00
      0.00000000000000E+00   9.95324297777160E-14   1.13583734151504E-13   1.64978063029668E-07   1.64978276145832E-07
     -4.71886541464139E-14  -1.70000000000000E+01  -1.70000000000000E+01   0.00000000000000E+00   1.10649515132799E-07
     -5.01904651317804E-15  -3.09431141812574E-07  -1.98781631698822E-07  -1.23993586573992E-13
      2.56974188898025E-09
      8.00000000000000E-01   8.00000000000000E-01   0.00000000000000E+00  -1.56110455740869E-12   2.80255054912486E-08
      2.07552953847435E-17   2.80239444074465E-08   1.71169656517566E-13   0.00000000000000E+00   0.00000000000000E+00
      0.00000000000000E+00  -2.34434361988930E-13   1.00183330816729E-13   1.64736926339835E-07   1.64736792088804E-07
     -4.71885927783133E-14  -1.70000000000000E+01  -1.70000000000000E+01   0.00000000000000E+00   1.00630657667226E-07
     -5.01867674207379E-15  -2.93391389144799E-07  -1.92760736496250E-07  -1.23981063739252E-13
      2.74748964362499E-09
      8.00000000000000E-01   8.00000000000000E-01   0.00000000000000E+00  -1.08668525184446E-12   2.16644821910861E-08
      2.07552151383440E-17   2.16633955265894E-08   1.71153227808210E-13   0.00000000000000E+00   0.00000000000000E+00
      0.00000000000000E+00  -4.22913400619951E-13   8.19048872673962E-14   1.63508970302008E-07   1.63508629293494E-07
     -4.71886180751617E-14  -1.70000000000000E+01  -1.70000000000000E+01   0.00000000000000E+00   8.44508270969323E-08
     -5.01819135080873E-15  -2.69622846898825E-07  -1.85172024820084E-07  -1.23964609733048E-13
      2.88080045960855E-09
      8.00000000000000E-01   8.00000000000000E-01   0.00000000000000E+00  -8.51212256752505E-13   1.81579221230301E-08
      2.07552173509979E-17   1.81570709315286E-08   1.71142953561009E-13   0.00000000000000E+00   0.00000000000000E+00
      0.00000000000000E+00  -4.23229292923757E-13   6.98710964541431E-14   1.62382887247996E-07   1.62382533889799E-07
     -4.71887818202689E-14  -1.70000000000000E+01  -1.70000000000000E+01   0.00000000000000E+00   7.21716970945254E-08
     -5.01788375004622E-15  -2.52711296897969E-07  -1.80539604821328E-07  -1.23954171740740E-13
      3.08076668358388E-09
      8.00000000000000E-01   8.00000000000000E-01   0.00000000000000E+00  -6.07205761427618E-13   1.42083572179222E-08
      2.07551949048211E-17   1.42077500329160E-08   1.71130755052315E-13   0.00000000000000E+00   0.00000000000000E+00
      0.00000000000000E+00  -3.32781978358794E-13   5.46432627108049E-14   1.60882079319145E-07   1.60881801180429E-07
     -4.71892666672667E-14  -1.70000000000000E+01  -1.70000000000000E+01   0.00000000000000E+00   5.48496019358579E-08
     -5.01751037001735E-15  -2.29939148131693E-07  -1.75089551213345E-07  -1.23941488385049E-13
      3.38071601954688E-09
      8.00000000000000E-01   8.00000000000000E-01   0.00000000000000E+00  -3.82058348288314E-13   1.02048719365495E-08
      2.07551435605561E-17   1.02044898989564E-08   1.71118724248785E-13   0.00000000000000E+00   0.00000000000000E+00
      0.00000000000000E+00  -1.51751677276181E-13   3.76452400637632E-14   1.59449180046129E-07   1.59449065939692E-07
     -4.71903903381062E-14  -1.70000000000000E+01  -1.70000000000000E+01   0.00000000000000E+00   3.34079192679890E-08
     -5.01712369580411E-15  -2.03061470089513E-07  -1.69653555838647E-07  -1.23928333910678E-13
      3.83064002349138E-09
      8.00000000000000E-01   8.00000000000000E-01   0.00000000000000E+00  -2.03695350542123E-13   6.67313266039321E-09
      2.07551477737211E-17   6.67292898579782E-09   1.71110584101450E-13   0.00000000000000E+00   0.00000000000000E+00
      0.00000000000000E+00   3.32330594939987E-14   2.22973151377240E-14   1.58947645605158E-07   1.58947701135533E-07
     -4.71924401632033E-14  -1.70000000000000E+01  -1.70000000000000E+01   0.00000000000000E+00   1.30279360706475E-08
     -5.01682478181041E-15  -1.78648561175153E-07  -1.65620630121331E-07  -1.23918143938246E-13
      4.50552602940813E-09
      8.00000000000000E-01   8.00000000000000E-01   0.00000000000000E+00  -9.09601630390904E-14   4.03570508090206E-09
      2.07551640363327E-17   4.03561414149418E-09   1.71108973355058E-13   0.00000000000000E+00   0.00000000000000E+00
      0.00000000000000E+00   1.03707619325575E-13   1.24954968967908E-14   1.59885945046284E-07   1.59886061249400E-07
     -4.71952645372517E-14  -1.70000000000000E+01  -1.70000000000000E+01   0.00000000000000E+00   1.40852304906073E-09
     -5.01669509894748E-15  -1.65330193423260E-07  -1.63921675390894E-07  -1.23913708817807E-13
      5.01169053384569E-09
      8.00000000000000E-01   8.00000000000000E-01   0.00000000000000E+00  -5.68738891016903E-14   3.02206294517984E-09
      2.07551437747082E-17   3.02200609204589E-09   1.71110333076676E-13   0.00000000000000E+00   0.00000000000000E+00
      0.00000000000000E+00   8.23979309321150E-14   1.00177731310188E-14   1.60773734997589E-07   1.60773827413293E-07
     -4.71968812230806E-14  -1.70000000000000E+01  -1.70000000000000E+01   0.00000000000000E+00  -1.87767311435361E-10
     -5.01668771561039E-15  -1.63608061177216E-07  -1.63795833505339E-07  -1.23913451853594E-13
      5.77093729050203E-09
      8.00000000000000E-01   8.00000000000000E-01   0.00000000000000E+00  -3.16520199992708E-14   2.11546666507061E-09
      2.07551611437793E-17   2.11543503380577E-09   1.71112245674162E-13   0.00000000000000E+00   0.00000000000000E+00
      0.00000000000000E+00   4.58071902547952E-14   8.56069982183125E-15   1.61677246477664E-07   1.61677300845554E-07
     -4.71986127125152E-14  -1.70000000000000E+01  -1.70000000000000E+01   0.00000000000000E+00  -2.26259159270126E-10
     -5.01669310071847E-15  -1.63566471703396E-07  -1.63792735879359E-07  -1.23913632961647E-13
      6.90980742548655E-09
      8.00000000000000E-01   8.00000000000000E-01   0.00000000000000E+00  -1.53770759377242E-14   1.39703658826490E-09
      2.07551155131743E-17   1.39702123194408E-09   1.71114023877951E-13   0.00000000000000E+00   0.00000000000000E+00
      0.00000000000000E+00   1.81104911054344E-14   7.59838326645661E-15   1.62332726408615E-07   1.62332752117490E-07
     -4.72003077959393E-14  -1.70000000000000E+01  -1.70000000000000E+01   0.00000000000000E+00   4.56569908900635E-11
     -5.01669554508512E-15  -1.63775425323629E-07  -1.63729773349434E-07  -1.23913716082010E-13
      8.61811262796332E-09
      8.00000000000000E-01   8.00000000000000E-01   0.00000000000000E+00  -6.52378603805298E-15   8.99774486180754E-10
      2.07551482710705E-17   8.99767983149864E-10   1.71115569751725E-13   0.00000000000000E+00   0.00000000000000E+00
      0.00000000000000E+00   7.02462638400242E-15   6.50592108909030E-15   1.62714487786191E-07   1.62714501316739E-07
     -4.72019337847881E-14  -1.70000000000000E+01  -1.70000000000000E+01   0.00000000000000E+00   3.86888633097448E-11
     -5.01669315845215E-15  -1.63652953146505E-07  -1.63614269299889E-07  -1.23913635966937E-13
      1.11805704316785E-08
      8.00000000000000E-01   8.00000000000000E-01   0.00000000000000E+00  -2.85435650729897E-15   5.81966509145178E-10
      2.07551073780968E-17   5.81963675543778E-10   1.71117086347943E-13   0.00000000000000E+00   0.00000000000000E+00
      0.00000000000000E+00   2.78722914017462E-15   5.15518470564800E-15   1.62937672953255E-07   1.62937680895669E-07
     -4.72035081879321E-14  -1.70000000000000E+01  -1.70000000000000E+01   0.00000000000000E+00   1.28638480448249E-11
     -5.01669140550637E-15  -1.63532503402566E-07  -1.63519644571213E-07  -1.23913578160011E-13
      1.50242571372512E-08
      8.00000000000000E-01   8.00000000000000E-01   0.00000000000000E+00  -1.44282899861112E-15   3.60031779161915E-10
      2.07551744663711E-17   3.60030357088091E-10   1.71118536122734E-13   0.00000000000000E+00   0.00000000000000E+00
      0.00000000000000E+00   1.18219380717088E-15   3.71503884403272E-15   1.63074659965102E-07   1.63074664862335E-07
     -4.72050052195611E-14  -1.70000000000000E+01  -1.70000000000000E+01   0.00000000000000E+00   1.03996365902545E-11
     -5.01668995080982E-15  -1.63445089839323E-07  -1.63434695219422E-07  -1.23913530903172E-13
      2.00242571372512E-08
      8.00000000000000E-01   8.00000000000000E-01   0.00000000000000E+00  -7.46060231018538E-16   2.11043188234965E-10
      2.07551037990453E-17   2.11042462929838E-10   1.71119671821921E-13   0.00000000000000E+00   0.00000000000000E+00
      0.00000000000000E+00   6.00163119065323E-16   2.52159691158895E-15   1.63156581147962E-07   1.63156584269722E-07
     -4.72061798860348E-14  -1.70000000000000E+01  -1.70000000000000E+01   0.00000000000000E+00   5.83169888712551E-12
     -5.01668874916936E-15  -1.63373453414850E-07  -1.63367626732652E-07  -1.23913491935887E-13
      2.50242571372512E-08
      8.00000000000000E-01   8.00000000000000E-01   0.00000000000000E+00  -4.12995376532967E-16   1.32255104383940E-10
      2.07551608084651E-17   1.32254712143724E-10   1.71120352351137E-13   0.00000000000000E+00   0.00000000000000E+00