DF-ISE text

Info {
  version   = 1.0
  type      = xyplot
  datasets  = [
    "time"
    "Ntop OuterVoltage" "Ntop InnerVoltage" "Ntop QuasiFermiPotential" "Ntop DisplacementCurrent" "Ntop eCurrent"
    "Ntop hCurrent" "Ntop TotalCurrent" "Ntop Charge" "Ptop OuterVoltage" "Ptop InnerVoltage"
    "Ptop QuasiFermiPotential" "Ptop DisplacementCurrent" "Ptop eCurrent" "Ptop hCurrent" "Ptop TotalCurrent"
    "Ptop Charge" "Pbot OuterVoltage" "Pbot InnerVoltage" "Pbot QuasiFermiPotential" "Pbot DisplacementCurrent"
    "Pbot eCurrent" "Pbot hCurrent" "Pbot TotalCurrent" "Pbot Charge" ]
  functions = [
    Time
    OuterVoltage InnerVoltage QuasiFermiPotential DisplacementCurrent eCurrent
    hCurrent TotalCurrent Charge OuterVoltage InnerVoltage
    QuasiFermiPotential DisplacementCurrent eCurrent hCurrent TotalCurrent
    Charge OuterVoltage InnerVoltage QuasiFermiPotential DisplacementCurrent
    eCurrent hCurrent TotalCurrent Charge ]
}

Data {
      5.00000000000000E-13
      8.00000000000000E-01   8.00000000000000E-01   0.00000000000000E+00   3.35684313482904E-15   2.10031132341258E-13
      2.07480348251313E-17   2.13408723510912E-13   1.66264157121340E-13   0.00000000000000E+00   0.00000000000000E+00
      0.00000000000000E+00  -1.09655261491358E-13  -1.97164502217328E-16   7.89836741700432E-12   7.78851499101074E-12
     -7.55973310309788E-14  -1.10000000000000E+01  -1.10000000000000E+01   0.00000000000000E+00  -1.90906237288235E-13
      1.31665368673630E-11  -2.09775543445964E-11  -8.00192371452164E-12  -9.06668260903614E-14
      1.25000000000000E-12
      8.00000000000000E-01   8.00000000000000E-01   0.00000000000000E+00   2.66477721782902E-14   5.02472805661792E-13
      2.07480348355254E-17   5.29141325874918E-13   1.66264157120254E-13   0.00000000000000E+00   0.00000000000000E+00
      0.00000000000000E+00  -4.79185622664660E-14  -1.97164502207912E-16   8.87428930492896E-12   8.82617357816029E-12
     -7.55973310294089E-14  -1.10000000000000E+01  -1.10000000000000E+01   0.00000000000000E+00  -1.15071701310201E-12
      6.07553341976460E-11  -6.89599320885792E-11  -9.35531490403522E-12  -9.06668260908452E-14
      2.37500000000000E-12
      8.00000000000000E-01   8.00000000000000E-01   0.00000000000000E+00   1.71625692233057E-13   4.03586878861871E-12
      2.07480349151419E-17   4.20751522888668E-12   1.66264157104200E-13   0.00000000000000E+00   0.00000000000000E+00
      0.00000000000000E+00   9.24729260792024E-13  -1.97164502208051E-16   2.03443460064668E-11   2.12688781027566E-11
     -7.55973310061301E-14  -1.10000000000000E+01  -1.10000000000000E+01   0.00000000000000E+00  -1.26156953860057E-11
      5.02562785027460E-10  -5.15423482973097E-10  -2.54763933316433E-11  -9.06668260980703E-14
      4.06250000000000E-12
      8.00000000000000E-01   8.00000000000000E-01   0.00000000000000E+00   2.57672609374832E-12   8.23941246257239E-11
      2.07480318541158E-17   8.49708714675040E-11   1.66264156629128E-13   0.00000000000000E+00   0.00000000000000E+00
      0.00000000000000E+00   1.32420809553975E-11  -1.97164500668741E-16   2.85533970909513E-10   2.98775854700410E-10
     -7.55973303135613E-14  -1.10000000000000E+01  -1.10000000000000E+01   0.00000000000000E+00  -2.67903742592305E-10
      7.61999036269571E-09  -7.73583334627132E-09  -3.83746726167912E-10  -9.06668263155667E-14
      6.59375000000000E-12
      8.00000000000000E-01   8.00000000000000E-01   0.00000000000000E+00   5.13070292318114E-11   2.41709130873530E-09
      2.07478787377548E-17   2.46839835871499E-09   1.66264136345402E-13   0.00000000000000E+00   0.00000000000000E+00
      0.00000000000000E+00   2.67385552000238E-10  -1.97164517071833E-16   8.37630783790883E-09   8.64369319274455E-09
     -7.55973005369195E-14  -1.10000000000000E+01  -1.10000000000000E+01   0.00000000000000E+00  -7.92962723108394E-09
      1.52359741779676E-07  -1.55542206100052E-07  -1.11120915514595E-08  -9.06668358084829E-14
      1.03906250000000E-11
      8.00000000000000E-01   8.00000000000000E-01   0.00000000000000E+00   4.28963871310504E-10   3.28063657277504E-08
      2.07479939200517E-17   3.32353296198089E-08   1.66263709309579E-13   0.00000000000000E+00   0.00000000000000E+00
      0.00000000000000E+00   2.23420325898320E-09  -1.97164196386131E-16   1.15498226602929E-07   1.17732429664748E-07
     -7.55966687355484E-14  -1.10000000000000E+01  -1.10000000000000E+01   0.00000000000000E+00  -1.08003372357379E-07
      1.26595473843009E-06  -1.30891912535726E-06  -1.50967759284556E-07  -9.06670405740307E-14
      1.60859375000000E-11
      8.00000000000000E-01   8.00000000000000E-01   0.00000000000000E+00   2.49491585170269E-10   8.10874160575787E-08
      2.07475538568476E-17   8.13369076634966E-08   1.66261564092705E-13   0.00000000000000E+00   0.00000000000000E+00
      0.00000000000000E+00   1.16740521962649E-09  -1.97163386003215E-16   2.85002960791369E-07   2.86170365813832E-07
     -7.55934484238309E-14  -1.10000000000000E+01  -1.10000000000000E+01   0.00000000000000E+00  -2.63170734974214E-07
      6.67071124817522E-07  -7.71407663320636E-07  -3.67507273477328E-07  -9.06681156688736E-14
      2.46289062500000E-11
      8.00000000000000E-01   8.00000000000000E-01   0.00000000000000E+00   2.91760345880499E-11   1.06207718538623E-07
      2.07476240656587E-17   1.06236894593958E-07   1.66256806961639E-13   0.00000000000000E+00   0.00000000000000E+00
      0.00000000000000E+00  -2.27825247351519E-11  -1.97163287927102E-16   3.52880258879560E-07   3.52857476157662E-07
     -7.55861244500847E-14  -1.10000000000000E+01  -1.10000000000000E+01   0.00000000000000E+00  -3.26724519389367E-07
      1.23607304484231E-09  -1.33605924407095E-07  -4.59094370751620E-07  -9.06706825115546E-14
      3.74433593750000E-11
      8.00000000000000E-01   8.00000000000000E-01   0.00000000000000E+00   2.39967191557623E-11   1.15157342710240E-07
      2.07487069326138E-17   1.15181339450144E-07   1.66249984723881E-13   0.00000000000000E+00   0.00000000000000E+00
      0.00000000000000E+00  -3.04390649079628E-11  -1.97161784857536E-16   3.46443797419711E-07   3.46413358157641E-07
     -7.55751339029798E-14  -1.10000000000000E+01  -1.10000000000000E+01   0.00000000000000E+00  -3.23575012119962E-07
     -3.61713863101803E-15  -1.38019681870686E-07  -4.61594697607786E-07  -9.06748508209008E-14
      5.66650390625000E-11
      8.00000000000000E-01   8.00000000000000E-01   0.00000000000000E+00   2.16301760670118E-11   1.26839717207299E-07
      2.07482131308433E-17   1.26861347404114E-07   1.66241550349472E-13   0.00000000000000E+00   0.00000000000000E+00
      0.00000000000000E+00  -3.27640968581426E-11  -1.97116537778319E-16   3.34623421295597E-07   3.34590657001622E-07
     -7.55605493045084E-14  -1.10000000000000E+01  -1.10000000000000E+01   0.00000000000000E+00  -3.16306002966792E-07
     -3.76270774495861E-15  -1.45145997676237E-07  -4.61452004405737E-07  -9.06810010449631E-14
      8.54975585937500E-11
      8.00000000000000E-01   8.00000000000000E-01   0.00000000000000E+00   2.13702558291969E-11   1.43389078264811E-07
      2.07486222638437E-17   1.43410448541389E-07   1.66231787595678E-13   0.00000000000000E+00   0.00000000000000E+00
      0.00000000000000E+00  -3.67506077313140E-11  -1.96174925973243E-16   3.15356356929753E-07   3.15319606125847E-07
     -7.55418311810120E-14  -1.10000000000000E+01  -1.10000000000000E+01   0.00000000000000E+00  -3.04884535839574E-07
     -3.86359455090919E-15  -1.53845514964066E-07  -4.58730054667235E-07  -9.06899564146656E-14
      1.28746337890625E-10
      8.00000000000000E-01   8.00000000000000E-01   0.00000000000000E+00   2.37305572102727E-11   1.69657258804322E-07
      2.07485529576141E-17   1.69680989382281E-07   1.66221455005571E-13   0.00000000000000E+00   0.00000000000000E+00
      0.00000000000000E+00  -4.24610629622706E-11  -1.80993078217327E-16   2.82508038447406E-07   2.82465577203450E-07
     -7.55186724541271E-14  -1.10000000000000E+01  -1.10000000000000E+01   0.00000000000000E+00  -2.88377381777800E-07
     -3.92156842711548E-15  -1.63769180886363E-07  -4.52146566585731E-07  -9.07027825514448E-14
      1.93619506835937E-10
      8.00000000000000E-01   8.00000000000000E-01   0.00000000000000E+00   2.53290290638491E-11   2.12717869792775E-07
      2.07485635826863E-17   2.12743198842588E-07   1.66212392915562E-13   0.00000000000000E+00   0.00000000000000E+00
      0.00000000000000E+00  -4.52538929445051E-11  -3.93935200383178E-18   2.28047116106728E-07   2.28001862209844E-07
     -7.54916099994165E-14  -1.10000000000000E+01  -1.10000000000000E+01   0.00000000000000E+00  -2.66920633863907E-07
     -3.94582747330241E-15  -1.73824423242696E-07  -4.40745061052431E-07  -9.07207829161457E-14
      2.42274383544922E-10
      8.00000000000000E-01   8.00000000000000E-01   0.00000000000000E+00   2.44594688143116E-11   2.45269941513197E-07
      2.07487254352409E-17   2.45294401002760E-07   1.66209478614600E-13   0.00000000000000E+00   0.00000000000000E+00
      0.00000000000000E+00  -4.41631645514828E-11   4.33450074911507E-16   1.86693926882586E-07   1.86649764151485E-07
     -7.54760435758378E-14  -1.10000000000000E+01  -1.10000000000000E+01   0.00000000000000E+00  -2.53295148823732E-07
     -3.94998436113393E-15  -1.78649012380528E-07  -4.31944165154244E-07  -9.07334350387624E-14
      3.15256698608398E-10
      8.00000000000000E-01   8.00000000000000E-01   0.00000000000000E+00   2.12289994194563E-11   2.90030742302649E-07
      2.07487933455177E-17   2.90051971322817E-07   1.66210066103475E-13   0.00000000000000E+00   0.00000000000000E+00
      0.00000000000000E+00  -4.04126302521821E-11   2.08443588655627E-15   1.28036076082213E-07   1.27995665536396E-07
     -7.54588161959777E-14  -1.10000000000000E+01  -1.10000000000000E+01   0.00000000000000E+00  -2.35037528203067E-07
     -3.95198096657600E-15  -1.83010104704167E-07  -4.18047636859215E-07  -9.07512499074975E-14
      3.69993434906006E-10
      8.00000000000000E-01   8.00000000000000E-01   0.00000000000000E+00   1.78218055614182E-11   3.18620801769731E-07
      2.07489049792515E-17   3.18638623596041E-07   1.66213736532382E-13   0.00000000000000E+00   0.00000000000000E+00
      0.00000000000000E+00  -3.64311785775828E-11   4.41274434867420E-15   8.81412485457641E-08   8.81048217799309E-08
     -7.54499768377931E-14  -1.10000000000000E+01  -1.10000000000000E+01   0.00000000000000E+00  -2.22067519919211E-07
     -3.95258348752643E-15  -1.84675921504177E-07  -4.06743445375972E-07  -9.07637596945879E-14
      4.52098539352417E-10
      8.00000000000000E-01   8.00000000000000E-01   0.00000000000000E+00   1.21669289046201E-11   3.51501955633999E-07
      2.07490039684187E-17   3.51514122583652E-07   1.66223085271148E-13   0.00000000000000E+00   0.00000000000000E+00
      0.00000000000000E+00  -2.96432291774369E-11   1.00596220825296E-14   3.67205209125655E-08   3.66908877430102E-08
     -7.54418888744986E-14  -1.10000000000000E+01  -1.10000000000000E+01   0.00000000000000E+00  -2.02648978463214E-07
     -3.95325721014167E-15  -1.85556027910192E-07  -3.88205010326663E-07  -9.07811963966497E-14
      5.13677367687225E-10
      8.00000000000000E-01   8.00000000000000E-01   0.00000000000000E+00   8.12218866690724E-12   3.68152651737234E-07
      2.07490646952022E-17   3.68160773946650E-07   1.66232326630660E-13   0.00000000000000E+00   0.00000000000000E+00
      0.00000000000000E+00  -2.46662089471777E-11   1.60780423714834E-14   5.05672845369706E-09   5.03207832279225E-09
     -7.54391065783630E-14  -1.10000000000000E+01  -1.10000000000000E+01   0.00000000000000E+00  -1.87839534003839E-07
     -3.95369456634995E-15  -1.85353314311909E-07  -3.73192852269442E-07  -9.07932200522971E-14
      5.59861488938332E-10
      8.00000000000000E-01   8.00000000000000E-01   0.00000000000000E+00   5.46205261658894E-12   3.76519015244917E-07
      2.07491352724814E-17   3.76524477318283E-07   1.66240114705085E-13   0.00000000000000E+00   0.00000000000000E+00
      0.00000000000000E+00  -2.13439857153770E-11   2.15815923813673E-14  -1.50663107121519E-08  -1.50876331162749E-08
     -7.54384797896261E-14  -1.10000000000000E+01  -1.10000000000000E+01   0.00000000000000E+00  -1.76553169610142E-07
     -3.95399916529082E-15  -1.84883670637869E-07  -3.61436844202010E-07  -9.08016349154585E-14
      6.29137670814991E-10
      8.00000000000000E-01   8.00000000000000E-01   0.00000000000000E+00   2.22383566070585E-12   3.83581194148642E-07
      2.07491486798614E-17   3.83583418005052E-07   1.66252685123706E-13   0.00000000000000E+00   0.00000000000000E+00
      0.00000000000000E+00  -1.72310397130181E-11   3.13190576775616E-14  -4.03335262206871E-08  -4.03507259413425E-08
     -7.54394129272341E-14  -1.10000000000000E+01  -1.10000000000000E+01   0.00000000000000E+00  -1.59396117219844E-07
     -3.95441991107928E-15  -1.83836570889443E-07  -3.43232692063707E-07  -9.08132721964705E-14
      7.33051943629980E-10
      8.00000000000000E-01   8.00000000000000E-01   0.00000000000000E+00  -1.05578486403027E-12   3.85052704261914E-07
      2.07492202070201E-17   3.85051648497799E-07   1.66272594851190E-13   0.00000000000000E+00   0.00000000000000E+00
      0.00000000000000E+00  -1.28891102027936E-11   4.87714950501154E-14  -6.98225040811330E-08  -6.98353444198408E-08
     -7.54441077113956E-14  -1.10000000000000E+01  -1.10000000000000E+01   0.00000000000000E+00  -1.33437596014931E-07
     -3.95496958761865E-15  -1.81778704108058E-07  -3.15216304077959E-07  -9.08284871397950E-14
      8.10987648241222E-10
      8.00000000000000E-01   8.00000000000000E-01   0.00000000000000E+00  -2.55490425913325E-12   3.81276000113328E-07
      2.07491714427416E-17   3.81273445229818E-07   1.66287793309212E-13   0.00000000000000E+00   0.00000000000000E+00
      0.00000000000000E+00  -1.07285820518554E-11   6.35524313708726E-14  -8.71969929192331E-08  -8.72076579488536E-08
     -7.54496626166538E-14  -1.10000000000000E+01  -1.10000000000000E+01   0.00000000000000E+00  -1.14057181638299E-07
     -3.95531776520289E-15  -1.80008601687349E-07  -2.94065787280965E-07  -9.08381306925584E-14
      9.27891205158085E-10
      8.00000000000000E-01   8.00000000000000E-01   0.00000000000000E+00  -3.97613403597335E-12   3.71032027370447E-07
      2.07491795275298E-17   3.71028051257160E-07   1.66310264363269E-13   0.00000000000000E+00   0.00000000000000E+00
      0.00000000000000E+00  -8.33011277239102E-12   8.69476762527119E-14  -1.08167381792469E-07  -1.08175624957565E-07
     -7.54604650068138E-14  -1.10000000000000E+01  -1.10000000000000E+01   0.00000000000000E+00  -8.56678856208999E-08
     -3.95573877800801E-15  -1.77184536722956E-07  -2.62852426299595E-07  -9.08497993564559E-14
      1.01556887284573E-09
      8.00000000000000E-01   8.00000000000000E-01   0.00000000000000E+00  -4.76818583297323E-12   3.60790547126490E-07
      2.07491382296617E-17   3.60785778961406E-07   1.66326550051196E-13   0.00000000000000E+00   0.00000000000000E+00
      0.00000000000000E+00  -6.69453098616038E-12   1.04343374059902E-13  -1.20536412263480E-07  -1.20543002451092E-07
     -7.54701385512625E-14  -1.10000000000000E+01  -1.10000000000000E+01   0.00000000000000E+00  -6.52403873568869E-08
     -3.95597716819192E-15  -1.75002385197450E-07  -2.40242776510314E-07  -9.08564114999339E-14
      1.14708537437720E-09
      8.00000000000000E-01   8.00000000000000E-01   0.00000000000000E+00  -5.97261675739267E-12   3.41900246363372E-07
      2.07490945421441E-17   3.41894273767363E-07   1.66349564250215E-13   0.00000000000000E+00   0.00000000000000E+00
      0.00000000000000E+00  -3.91678431796854E-12   1.27937917415219E-13  -1.33571392468692E-07  -1.33575181315092E-07
     -7.54864705058097E-14  -1.10000000000000E+01  -1.10000000000000E+01   0.00000000000000E+00  -3.66144335789708E-08
     -3.95621788231249E-15  -1.71704654917082E-07  -2.08319092452271E-07  -9.08630937444049E-14
      1.34436012667441E-09
      8.00000000000000E-01   8.00000000000000E-01   0.00000000000000E+00  -7.92782289921546E-12   3.05070176122935E-07
      2.07489861251820E-17   3.05062248320785E-07   1.66379644554368E-13   0.00000000000000E+00   0.00000000000000E+00
      0.00000000000000E+00   9.40939678400902E-13   1.53431821338302E-13  -1.38779241409258E-07  -1.38778147037758E-07
     -7.55130534295566E-14  -1.10000000000000E+01  -1.10000000000000E+01   0.00000000000000E+00   4.92418816919250E-10
     -3.95634354710688E-15  -1.66776516143603E-07  -1.66284101283028E-07  -9.08665911248116E-14
      1.49231619089731E-09
      8.00000000000000E-01   8.00000000000000E-01   0.00000000000000E+00  -9.16211922386045E-12   2.70976511142971E-07
      2.07488978641096E-17   2.70967349044496E-07   1.66397660218980E-13   0.00000000000000E+00   0.00000000000000E+00
      0.00000000000000E+00   4.41670015356972E-12   1.62954454504123E-13  -1.30931102925954E-07  -1.30926523271346E-07
     -7.55328414903602E-14  -1.10000000000000E+01  -1.10000000000000E+01   0.00000000000000E+00   2.30628711916277E-08
     -3.95627938956775E-15  -1.63103693008498E-07  -1.40040825773149E-07  -9.08648187286196E-14
      1.71425028723167E-09
      8.00000000000000E-01   8.00000000000000E-01   0.00000000000000E+00  -9.81972734609465E-12   2.13815949689233E-07
      2.07487386706319E-17   2.13806129982636E-07   1.66415666639069E-13   0.00000000000000E+00   0.00000000000000E+00
      0.00000000000000E+00   7.72635309448334E-12   1.62337292548601E-13  -1.04671219318180E-07  -1.04663330627793E-07
     -7.55588713280329E-14  -1.10000000000000E+01  -1.10000000000000E+01   0.00000000000000E+00   4.84127668634821E-08
     -3.95598993002107E-15  -1.57555562262335E-07  -1.09142799354842E-07  -9.08567953110371E-14
      1.79747557335705E-09
      8.00000000000000E-01   8.00000000000000E-01   0.00000000000000E+00  -9.62721121871171E-12   1.91984975449328E-07
      2.07486447692962E-17   1.91975348258858E-07   1.66419462913793E-13   0.00000000000000E+00   0.00000000000000E+00
      0.00000000000000E+00   8.21110718787843E-12   1.58189037630300E-13  -9.20560291978282E-08  -9.20476599016027E-08
     -7.55669960734739E-14  -1.10000000000000E+01  -1.10000000000000E+01   0.00000000000000E+00   5.55039284897507E-08
     -3.95583385660820E-15  -1.55431612891173E-07  -9.99276883572558E-08  -9.08524668403182E-14
      1.82868505565407E-09
      8.00000000000000E-01   8.00000000000000E-01   0.00000000000000E+00  -9.49867868629929E-12   1.83939204087481E-07
      2.07486324800029E-17   1.83929705429544E-07   1.66420469215717E-13   0.00000000000000E+00   0.00000000000000E+00
      0.00000000000000E+00   8.28960736407689E-12   1.56195499703108E-13  -8.71774063178626E-08  -8.71689605149988E-08
     -7.55697716494009E-14  -1.10000000000000E+01  -1.10000000000000E+01   0.00000000000000E+00   5.78633336621050E-08
     -3.95577006758260E-15  -1.54624074620880E-07  -9.67607449145452E-08  -9.08506975663172E-14
      1.85209216737684E-09
      8.00000000000000E-01   8.00000000000000E-01   0.00000000000000E+00  -9.38173264845988E-12   1.77982578406296E-07
      2.07486433871814E-17   1.77973196694396E-07   1.66421077567318E-13   0.00000000000000E+00   0.00000000000000E+00
      0.00000000000000E+00   8.29749648518215E-12   1.54562580656476E-13  -8.35008072631206E-08  -8.34923552040548E-08
     -7.55717540362685E-14  -1.10000000000000E+01  -1.10000000000000E+01   0.00000000000000E+00   5.95327119319540E-08
     -3.95572053026141E-15  -1.54013549466575E-07  -9.44808414903413E-08  -9.08493235310491E-14
      1.88720283496098E-09
      8.00000000000000E-01   8.00000000000000E-01   0.00000000000000E+00  -9.17879770141508E-12   1.69197347277811E-07
      2.07485626228091E-17   1.69188168500858E-07   1.66421759374466E-13   0.00000000000000E+00   0.00000000000000E+00
      0.00000000000000E+00   8.27412368329698E-12   1.51911147063322E-13  -7.79907540111409E-08  -7.79823279763105E-08
     -7.55745676095118E-14  -1.10000000000000E+01  -1.10000000000000E+01   0.00000000000000E+00   6.18830868089859E-08
     -3.95564367757116E-15  -1.53088923377890E-07  -9.12058405245478E-08  -9.08471917649533E-14
      1.93986883633720E-09
      8.00000000000000E-01   8.00000000000000E-01   0.00000000000000E+00  -8.81940512129904E-12   1.56415230991194E-07
      2.07485361823795E-17   1.56406411606821E-07   1.66422277631226E-13   0.00000000000000E+00   0.00000000000000E+00
      0.00000000000000E+00   8.12428172419366E-12   1.47530316842235E-13  -6.98173932477867E-08  -6.98091214357457E-08
     -7.55784300909036E-14  -1.10000000000000E+01  -1.10000000000000E+01   0.00000000000000E+00   6.50819743063319E-08
     -3.95552311975029E-15  -1.51679260521884E-07  -8.65972901710756E-08  -9.08438475403213E-14
      2.01886783840153E-09
      8.00000000000000E-01   8.00000000000000E-01   0.00000000000000E+00  -8.18299528409871E-12   1.38295756009688E-07
      2.07485271534812E-17   1.38287573035152E-07   1.66421978643604E-13   0.00000000000000E+00   0.00000000000000E+00
      0.00000000000000E+00   7.69459374301702E-12   1.40216289295700E-13  -5.79984246865393E-08  -5.79905898765070E-08
     -7.55834380255491E-14  -1.10000000000000E+01  -1.10000000000000E+01   0.00000000000000E+00   6.92066297642256E-08
     -3.95533181865947E-15  -1.49503608967539E-07  -8.02969831586448E-08  -9.08385406180533E-14
      2.13736634149802E-09
      8.00000000000000E-01   8.00000000000000E-01   0.00000000000000E+00  -7.09901587921593E-12   1.13858733637807E-07
      2.07484304206710E-17   1.13851634642677E-07   1.66419340743977E-13   0.00000000000000E+00   0.00000000000000E+00
      0.00000000000000E+00   6.72390345367248E-12   1.28088927740546E-13  -4.18542460180203E-08  -4.18473940256389E-08
     -7.55892962128382E-14  -1.10000000000000E+01  -1.10000000000000E+01   0.00000000000000E+00   7.40629664187065E-08
     -3.95502558156857E-15  -1.46067203080718E-07  -7.20042406170372E-08  -9.08300445311375E-14
      2.31511409614276E-09
      8.00000000000000E-01   8.00000000000000E-01   0.00000000000000E+00  -5.43349478812814E-12   8.38220937175874E-08
      2.07483231752325E-17   8.38166602435476E-08   1.66411333706754E-13   0.00000000000000E+00   0.00000000000000E+00
      0.00000000000000E+00   4.96779647906121E-12   1.08766832665401E-13  -2.22700009304735E-08  -2.22649243671618E-08
     -7.55948998138199E-14  -1.10000000000000E+01  -1.10000000000000E+01   0.00000000000000E+00   7.88524861726921E-08
     -3.95453506812013E-15  -1.40404218094543E-07  -6.15517358763859E-08  -9.08164338929329E-14
      2.58173572810987E-09
      8.00000000000000E-01   8.00000000000000E-01   0.00000000000000E+00  -3.34595132560465E-12   5.24293955662677E-08
      2.07482399775766E-17   5.24260496356903E-08   1.66393159895326E-13   0.00000000000000E+00   0.00000000000000E+00
      0.00000000000000E+00   2.56930004725529E-12   8.07872382075202E-14  -3.54712856920135E-09  -3.54447848191589E-09
     -7.55981631316470E-14  -1.10000000000000E+01  -1.10000000000000E+01   0.00000000000000E+00   8.15429863072189E-08
     -3.95376277823748E-15  -1.30424553507231E-07  -4.88815711537744E-08  -9.07949967636792E-14
      2.78170195208521E-09
      8.00000000000000E-01   8.00000000000000E-01   0.00000000000000E+00  -2.24499662798841E-12   3.74002833109721E-08
      2.07481869462784E-17   3.73980383350923E-08   1.66376867694067E-13   0.00000000000000E+00   0.00000000000000E+00
      0.00000000000000E+00   1.29002903700295E-12   6.24187118091505E-14   3.58417040785785E-09   3.58552285560666E-09
     -7.55981029257371E-14  -1.10000000000000E+01  -1.10000000000000E+01   0.00000000000000E+00   8.06099016320216E-08
     -3.95317833874168E-15  -1.21593458869542E-07  -4.09835611906992E-08  -9.07787647683294E-14
      2.93167662006671E-09
      8.00000000000000E-01   8.00000000000000E-01   0.00000000000000E+00  -1.67081593028414E-12   2.94803115188077E-08
      2.07481615693778E-17   2.94786407236256E-08   1.66364175738602E-13   0.00000000000000E+00   0.00000000000000E+00
      0.00000000000000E+00   6.40540480017672E-13   5.06209153362870E-14   6.23729237395813E-09   6.23798353535348E-09
     -7.55973481435008E-14  -1.10000000000000E+01  -1.10000000000000E+01   0.00000000000000E+00   7.84820046374761E-08
     -3.95274878355778E-15  -1.14198624943706E-07  -3.57166242589791E-08  -9.07668275951019E-14
      3.15663862203896E-09
      8.00000000000000E-01   8.00000000000000E-01   0.00000000000000E+00  -1.08718510601795E-12   2.11575915513778E-08
      2.07481206943727E-17   2.11565043870199E-08   1.66345499879183E-13   0.00000000000000E+00   0.00000000000000E+00
      0.00000000000000E+00   4.26498243832067E-14   3.61602409858989E-14   7.55476247080240E-09   7.55484128086777E-09
     -7.55957688293519E-14  -1.10000000000000E+01  -1.10000000000000E+01   0.00000000000000E+00   7.33306827082938E-08
     -3.95213402471655E-15  -1.02042024424047E-07  -2.87113456678876E-08  -9.07497310498310E-14
      3.32536012351814E-09
      8.00000000000000E-01   8.00000000000000E-01   0.00000000000000E+00  -8.06960860964988E-13   1.68503252720745E-08
      2.07481195619690E-17   1.68495183319616E-08   1.66332298215050E-13   0.00000000000000E+00   0.00000000000000E+00
      0.00000000000000E+00  -1.88858731313730E-13   2.76757628648242E-14   7.26230783201867E-09   7.26214664905022E-09
     -7.55945126589598E-14  -1.10000000000000E+01  -1.10000000000000E+01   0.00000000000000E+00   6.81912488804925E-08
     -3.95170486292814E-15  -9.23029099097995E-08  -2.41116649810119E-08  -9.07377855560909E-14
      3.57844237573693E-09
      8.00000000000000E-01   8.00000000000000E-01   0.00000000000000E+00  -5.35539208295592E-13   1.22875758624689E-08
      2.07480738178196E-17   1.22870403440087E-08   1.66314503251362E-13   0.00000000000000E+00   0.00000000000000E+00
      0.00000000000000E+00  -3.37639756631993E-13   1.81230441608973E-14   5.91369556007696E-09   5.91337604336449E-09
     -7.55928389533110E-14  -1.10000000000000E+01  -1.10000000000000E+01   0.00000000000000E+00   5.91033612770941E-08
     -3.95112625704666E-15  -7.73037737133411E-08  -1.82004163873732E-08  -9.07216642980516E-14
      3.76825406490101E-09
      8.00000000000000E-01   8.00000000000000E-01   0.00000000000000E+00  -4.05668621358638E-13   9.87645821204215E-09
      2.07480715839822E-17   9.87605256416886E-09   1.66302986976540E-13   0.00000000000000E+00   0.00000000000000E+00
      0.00000000000000E+00  -3.53393052859768E-13   1.30010063836246E-14   4.63266302355847E-09   4.63232263151199E-09
     -7.55918388786267E-14  -1.10000000000000E+01  -1.10000000000000E+01   0.00000000000000E+00   5.16842317515803E-08
     -3.95074924480471E-15  -6.61926029965119E-08  -1.45083751956809E-08  -9.07111480979128E-14
      4.05297159864714E-09
      8.00000000000000E-01   8.00000000000000E-01   0.00000000000000E+00  -2.75567471034071E-13   7.26653911962257E-09
      2.07480991354538E-17   7.26626357289964E-09   1.66288809884659E-13   0.00000000000000E+00   0.00000000000000E+00
      0.00000000000000E+00  -3.10100797212467E-13   7.70515396244174E-15   2.79469725083117E-09   2.79439485518792E-09
     -7.55907869818115E-14  -1.10000000000000E+01  -1.10000000000000E+01   0.00000000000000E+00   4.05584878009257E-08
     -3.95027925184153E-15  -5.06191422787341E-08  -1.00606584280876E-08  -9.06980229028490E-14
      4.48004789926633E-09
      8.00000000000000E-01   8.00000000000000E-01   0.00000000000000E+00  -1.60665920907608E-13   4.77290145146217E-09
      2.07480646047576E-17   4.77274080628933E-09   1.66273977308223E-13   0.00000000000000E+00   0.00000000000000E+00
      0.00000000000000E+00  -1.97938342681178E-13   3.29385275531326E-15   7.02275267322917E-10   7.02080622832991E-10
     -7.55900606238522E-14  -1.10000000000000E+01  -1.10000000000000E+01   0.00000000000000E+00   2.57885415132382E-08
     -3.94977499213765E-15  -3.12633589925855E-08  -5.47482142912232E-09  -9.06839166843707E-14
      5.12066235019512E-09
      8.00000000000000E-01   8.00000000000000E-01   0.00000000000000E+00  -7.50266409996779E-14   2.77313753661202E-09
      2.07480533549951E-17   2.77306253071907E-09   1.66262631666455E-13   0.00000000000000E+00   0.00000000000000E+00
      0.00000000000000E+00  -6.17487390413880E-14   7.04101582145518E-16  -8.59760428623253E-10  -8.59821473260712E-10
     -7.55901590856628E-14  -1.10000000000000E+01  -1.10000000000000E+01   0.00000000000000E+00   1.07033382680724E-08
     -3.94936687516894E-15  -1.26165753761639E-08  -1.91324105745836E-09  -9.06724725807936E-14
      5.60112318839171E-09
      8.00000000000000E-01   8.00000000000000E-01   0.00000000000000E+00  -4.47110714749567E-14   2.00183574644812E-09
      2.07480467334731E-17   2.00179105612469E-09   1.66259502588330E-13   0.00000000000000E+00   0.00000000000000E+00
      0.00000000000000E+00  -1.05708413145248E-14   1.23746437449472E-16  -1.18269420473271E-09  -1.18270465182759E-09
     -7.55906618917865E-14  -1.10000000000000E+01  -1.10000000000000E+01   0.00000000000000E+00   4.73529845136627E-09
     -3.94923773396016E-15  -5.55438090642564E-09  -8.19086404297103E-10  -9.06688406965439E-14
      6.32181444568660E-09
      8.00000000000000E-01   8.00000000000000E-01   0.00000000000000E+00  -2.24516762535599E-14   1.35939248479085E-09
      2.07480436212424E-17   1.35937005386264E-09   1.66258409379562E-13   0.00000000000000E+00   0.00000000000000E+00
      0.00000000000000E+00   1.49179917687931E-14  -1.39888506919568E-16  -1.13368583961830E-09  -1.13367106151504E-09
     -7.55915104227099E-14  -1.10000000000000E+01  -1.10000000000000E+01   0.00000000000000E+00   1.00743224173363E-09
     -3.94916885174367E-15  -1.23312728491237E-09  -2.25698992347591E-10  -9.06668989568523E-14
      6.86233288865776E-09
      8.00000000000000E-01   8.00000000000000E-01   0.00000000000000E+00  -1.48371415970157E-14   1.08811066303911E-09
      2.07480413435416E-17   1.08809584664555E-09   1.66258666532556E-13   0.00000000000000E+00   0.00000000000000E+00