DF-ISE text

Info {
  version   = 1.0
  type      = xyplot
  datasets  = [
    "time"
    "Ntop OuterVoltage" "Ntop InnerVoltage" "Ntop QuasiFermiPotential" "Ntop DisplacementCurrent" "Ntop eCurrent"
    "Ntop hCurrent" "Ntop TotalCurrent" "Ntop Charge" "Ptop OuterVoltage" "Ptop InnerVoltage"
    "Ptop QuasiFermiPotential" "Ptop DisplacementCurrent" "Ptop eCurrent" "Ptop hCurrent" "Ptop TotalCurrent"
    "Ptop Charge" "Pbot OuterVoltage" "Pbot InnerVoltage" "Pbot QuasiFermiPotential" "Pbot DisplacementCurrent"
    "Pbot eCurrent" "Pbot hCurrent" "Pbot TotalCurrent" "Pbot Charge" ]
  functions = [
    Time
    OuterVoltage InnerVoltage QuasiFermiPotential DisplacementCurrent eCurrent
    hCurrent TotalCurrent Charge OuterVoltage InnerVoltage
    QuasiFermiPotential DisplacementCurrent eCurrent hCurrent TotalCurrent
    Charge OuterVoltage InnerVoltage QuasiFermiPotential DisplacementCurrent
    eCurrent hCurrent TotalCurrent Charge ]
}

Data {
      5.00000000000000E-13
      8.00000000000000E-01   8.00000000000000E-01   0.00000000000000E+00  -1.10251035234519E-15   1.39691196728740E-13
      2.07550324119015E-17   1.38609441408807E-13   1.71125512918680E-13   0.00000000000000E+00   0.00000000000000E+00
      0.00000000000000E+00  -1.06732016740457E-13  -1.96764837726990E-16   1.63218341568496E-07   1.63218234639715E-07
     -4.72119673857504E-14  -1.70000000000000E+01  -1.70000000000000E+01   0.00000000000000E+00  -3.19221230860726E-13
      1.45908459664703E-11  -1.63232644873891E-07  -1.63218373249156E-07  -1.23913545532930E-13
      1.25000000000000E-12
      8.00000000000000E-01   8.00000000000000E-01   0.00000000000000E+00   1.84467792825836E-14   3.25212289205571E-13
      2.07550941266445E-17   3.43679823582281E-13   1.71125512917931E-13   0.00000000000000E+00   0.00000000000000E+00
      0.00000000000000E+00   4.48375542640719E-14  -1.96764837728262E-16   1.63220126223697E-07   1.63220170864486E-07
     -4.72119673842056E-14  -1.70000000000000E+01  -1.70000000000000E+01   0.00000000000000E+00  -1.89782034573180E-12
      6.73299460352692E-11  -1.63285946670000E-07  -1.63220514544310E-07  -1.23913545533726E-13
      2.37500000000000E-12
      8.00000000000000E-01   8.00000000000000E-01   0.00000000000000E+00   9.35233900527642E-14   2.49607482287302E-12
      2.07550179206306E-17   2.58961896794371E-12   1.71125512906749E-13   0.00000000000000E+00   0.00000000000000E+00
      0.00000000000000E+00   1.69213590437334E-12  -1.96764837595415E-16   1.63241755557316E-07   1.63243447496456E-07
     -4.72119673611431E-14  -1.70000000000000E+01  -1.70000000000000E+01   0.00000000000000E+00  -2.07623483751545E-11
      5.56952056012113E-10  -1.63782226823060E-07  -1.63246037115423E-07  -1.23913545545606E-13
      4.06250000000000E-12
      8.00000000000000E-01   8.00000000000000E-01   0.00000000000000E+00   1.26547682927061E-12   4.73572997051820E-11
      2.07551131423036E-17   4.86227972895657E-11   1.71125512569898E-13   0.00000000000000E+00   0.00000000000000E+00
      0.00000000000000E+00   2.51373574478477E-11  -1.96764835408845E-16   1.63739888534869E-07   1.63765025695552E-07
     -4.72119666664326E-14  -1.70000000000000E+01  -1.70000000000000E+01   0.00000000000000E+00  -4.41070680037341E-10
      8.44466400281705E-09  -1.71817241815621E-07  -1.63813648492842E-07  -1.23913545903467E-13
      6.59375000000000E-12
      8.00000000000000E-01   8.00000000000000E-01   0.00000000000000E+00   2.27411225758540E-11   1.27192115624933E-09
      2.07550741194983E-17   1.29466229958026E-09   1.71125497880008E-13   0.00000000000000E+00   0.00000000000000E+00
      0.00000000000000E+00   5.10489981987471E-10  -1.96764775225275E-16   1.79008015041156E-07   1.79518504826378E-07
     -4.72119363590872E-14  -1.70000000000000E+01  -1.70000000000000E+01   0.00000000000000E+00  -1.30522619914341E-08
      1.68848890659548E-07  -3.36609795794072E-07  -1.80813167125958E-07  -1.23913561520921E-13
      1.03906250000000E-11
      8.00000000000000E-01   8.00000000000000E-01   0.00000000000000E+00   1.71574379071150E-10   1.55157589391414E-08
      2.07561463456824E-17   1.56873333389687E-08   1.71125182677713E-13   0.00000000000000E+00   0.00000000000000E+00
      0.00000000000000E+00   4.29467074695669E-09  -1.96763899700676E-16   3.82560213526535E-07   3.86854884076728E-07
     -4.72112841515848E-14  -1.70000000000000E+01  -1.70000000000000E+01   0.00000000000000E+00  -1.77804006078563E-07
      1.40296282606852E-06  -1.62770103740565E-06  -4.02542217415697E-07  -1.23913898526127E-13
      1.60859375000000E-11
      8.00000000000000E-01   8.00000000000000E-01   0.00000000000000E+00   7.18739188344795E-11   3.08441882825103E-08
      2.07554125519106E-17   3.09160622221002E-08   1.71123545617691E-13   0.00000000000000E+00   0.00000000000000E+00
      0.00000000000000E+00   2.32094903369350E-09  -1.96763436236001E-16   7.12785599623633E-07   7.15106548460563E-07
     -4.72078776210017E-14  -1.70000000000000E+01  -1.70000000000000E+01   0.00000000000000E+00  -4.32940311740572E-07
      7.39264968234471E-07  -1.05234726717656E-06  -7.46022610682665E-07  -1.23915667996689E-13
      2.46289062500000E-11
      8.00000000000000E-01   8.00000000000000E-01   0.00000000000000E+00  -4.70673677575240E-12   3.43031335306726E-08
      2.07555104915137E-17   3.42984268146524E-08   1.71119726115361E-13   0.00000000000000E+00   0.00000000000000E+00
      0.00000000000000E+00   2.05793227448949E-11  -1.96762972306105E-16   8.55220135669293E-07   8.55240714795275E-07
     -4.71998455327139E-14  -1.70000000000000E+01  -1.70000000000000E+01   0.00000000000000E+00  -5.34972091264568E-07
      1.36984597040655E-09  -3.55936896315764E-07  -8.89539141609926E-07  -1.23919880582646E-13
      3.74433593750000E-11
      8.00000000000000E-01   8.00000000000000E-01   0.00000000000000E+00  -5.80626715274226E-13   3.34202457197553E-08
      2.07554413631350E-17   3.34196651137955E-08   1.71113745609256E-13   0.00000000000000E+00   0.00000000000000E+00
      0.00000000000000E+00  -9.52619617430643E-12  -1.96759180439930E-16   8.56261914593599E-07   8.56252388200665E-07
     -4.71870711615177E-14  -1.70000000000000E+01  -1.70000000000000E+01   0.00000000000000E+00  -5.24983539675063E-07
     -5.01746877812539E-15  -3.64688508621928E-07  -8.89672053314460E-07  -1.23926674447738E-13
      5.66650390625000E-11
      8.00000000000000E-01   8.00000000000000E-01   0.00000000000000E+00  -1.69758247641448E-12   3.27365633696358E-08
      2.07551126501579E-17   3.27348658079145E-08   1.71105305088047E-13   0.00000000000000E+00   0.00000000000000E+00
      0.00000000000000E+00  -1.53404873795792E-11  -1.96656161701904E-16   8.51279429003820E-07   8.51264088319784E-07
     -4.71687155932826E-14  -1.70000000000000E+01  -1.70000000000000E+01   0.00000000000000E+00  -5.06666789798341E-07
     -5.01793931053244E-15  -3.77332159311417E-07  -8.83998954127698E-07  -1.23936589494765E-13
      8.54975585937500E-11
      8.00000000000000E-01   8.00000000000000E-01   0.00000000000000E+00  -1.84098842419375E-12   3.13045466351018E-08
      2.07551146148705E-17   3.13027056674327E-08   1.71093582833454E-13   0.00000000000000E+00   0.00000000000000E+00
      0.00000000000000E+00  -2.11895835444796E-11  -1.94488076987502E-16   8.40682625642683E-07   8.40661435864651E-07
     -4.71427764851326E-14  -1.70000000000000E+01  -1.70000000000000E+01   0.00000000000000E+00  -4.79600289054325E-07
     -5.01840349101760E-15  -3.92363847459354E-07  -8.71964141532082E-07  -1.23950806348321E-13
      1.28746337890625E-10
      8.00000000000000E-01   8.00000000000000E-01   0.00000000000000E+00  -1.61759350972542E-12   2.92365219544126E-08
      2.07549376490265E-17   2.92349043816578E-08   1.71077550252076E-13   0.00000000000000E+00   0.00000000000000E+00
      0.00000000000000E+00  -2.41616768890390E-11  -1.58629846922043E-16   8.21567928194163E-07   8.21543766358644E-07
     -4.71068204875675E-14  -1.70000000000000E+01  -1.70000000000000E+01   0.00000000000000E+00  -4.42115960366453E-07
     -5.01901406509474E-15  -4.08662705354839E-07  -8.50778670740305E-07  -1.23970729764509E-13
      1.93619506835937E-10
      8.00000000000000E-01   8.00000000000000E-01   0.00000000000000E+00  -8.83592643529295E-13   2.70230599695287E-08
      2.07549348864497E-17   2.70221763976401E-08   1.71055960451402E-13   0.00000000000000E+00   0.00000000000000E+00
      0.00000000000000E+00  -2.63334160587305E-11   2.74060694509407E-16   7.90102938276919E-07   7.90076605134921E-07
     -4.70581523387414E-14  -1.70000000000000E+01  -1.70000000000000E+01   0.00000000000000E+00  -3.93350737216623E-07
     -5.01982699066886E-15  -4.23748039296112E-07  -8.17098781532561E-07  -1.23997808112661E-13
      2.42274383544922E-10
      8.00000000000000E-01   8.00000000000000E-01   0.00000000000000E+00  -6.10709884506767E-14   2.64336407492304E-08
      2.07549824230056E-17   2.64335796989969E-08   1.71041248737131E-13   0.00000000000000E+00   0.00000000000000E+00
      0.00000000000000E+00  -2.80200314434382E-11   1.36531056938634E-15   7.64863784681621E-07   7.64835766015488E-07
     -4.70250917704924E-14  -1.70000000000000E+01  -1.70000000000000E+01   0.00000000000000E+00  -3.61126727197094E-07
     -5.02037688530246E-15  -4.30142613497014E-07  -7.91269345714484E-07  -1.24016156966639E-13
      3.15256698608398E-10
      8.00000000000000E-01   8.00000000000000E-01   0.00000000000000E+00   1.73281687976742E-12   2.81998921032287E-08
      2.07551273200149E-17   2.82016249408636E-08   1.71021099704695E-13   0.00000000000000E+00   0.00000000000000E+00
      0.00000000000000E+00  -3.12560319093700E-11   5.56736658187007E-15   7.23718786555709E-07   7.23687536091166E-07
     -4.69802154287513E-14  -1.70000000000000E+01  -1.70000000000000E+01   0.00000000000000E+00  -3.16807037075978E-07
     -5.02111948226863E-15  -4.35082118934931E-07  -7.51889161032029E-07  -1.24040884275943E-13
      3.69993434906006E-10
      8.00000000000000E-01   8.00000000000000E-01   0.00000000000000E+00   3.53455048731124E-12   3.23277675239673E-08
      2.07551285714924E-17   3.23313020952097E-08   1.71007349864980E-13   0.00000000000000E+00   0.00000000000000E+00
      0.00000000000000E+00  -3.41610086943806E-11   1.15562047913764E-14   6.89721604717307E-07   6.89687455264818E-07
     -4.69499819514675E-14  -1.70000000000000E+01  -1.70000000000000E+01   0.00000000000000E+00  -2.85589526202454E-07
     -5.02161531030963E-15  -4.36429226135958E-07  -7.22018757360027E-07  -1.24057367913512E-13
      4.11045987129211E-10
      8.00000000000000E-01   8.00000000000000E-01   0.00000000000000E+00   5.10419616916519E-12   3.73964930421481E-08
      2.07553032809169E-17   3.74015972590726E-08   1.70997757469214E-13   0.00000000000000E+00   0.00000000000000E+00
      0.00000000000000E+00  -3.65435429426389E-11   1.79655161036303E-14   6.62192389929320E-07   6.62155864351893E-07
     -4.69291313032598E-14  -1.70000000000000E+01  -1.70000000000000E+01   0.00000000000000E+00  -2.62938333218314E-07
     -5.02195415910444E-15  -4.36619123370697E-07  -6.99557461610966E-07  -1.24068626165954E-13
      4.72624815464020E-10
      8.00000000000000E-01   8.00000000000000E-01   0.00000000000000E+00   7.65343379765646E-12   4.86126646713735E-08
      2.07552291607739E-17   4.86203181259264E-08   1.70984519517838E-13   0.00000000000000E+00   0.00000000000000E+00
      0.00000000000000E+00  -4.02304473105595E-11   3.08190998345364E-14   6.17405838940132E-07   6.17365639311921E-07
     -4.69007210930828E-14  -1.70000000000000E+01  -1.70000000000000E+01   0.00000000000000E+00  -2.29929002626966E-07
     -5.02241089406536E-15  -4.36056949788470E-07  -6.65985957437847E-07  -1.24083798424755E-13
      5.18808936715126E-10
      8.00000000000000E-01   8.00000000000000E-01   0.00000000000000E+00   9.57035000021751E-12   5.99796923792337E-08
      2.07552194569979E-17   5.99892627499892E-08   1.70975522483947E-13   0.00000000000000E+00   0.00000000000000E+00
      0.00000000000000E+00  -4.28828436739853E-11   4.29594608555908E-14   5.81084167339633E-07   5.81041327455420E-07
     -4.68816619936709E-14  -1.70000000000000E+01  -1.70000000000000E+01   0.00000000000000E+00  -2.05856018277434E-07
     -5.02271377829393E-15  -4.35174566905260E-07  -6.41030590205407E-07  -1.24093860490276E-13
      5.88085118591785E-10
      8.00000000000000E-01   8.00000000000000E-01   0.00000000000000E+00   1.21077712400277E-11   8.14894653016614E-08
      2.07552598548818E-17   8.15015730936567E-08   1.70963616424090E-13   0.00000000000000E+00   0.00000000000000E+00
      0.00000000000000E+00  -4.61868306296909E-11   6.48652222816052E-14   5.22736247961308E-07   5.22690125995900E-07
     -4.68567133563395E-14  -1.70000000000000E+01  -1.70000000000000E+01   0.00000000000000E+00  -1.70790064308725E-07
     -5.02310626985523E-15  -4.33401629757727E-07  -6.04191699089558E-07  -1.24106903067750E-13
      6.91999391406774E-10
      8.00000000000000E-01   8.00000000000000E-01   0.00000000000000E+00   1.44390524089523E-11   1.21190551615368E-07
      2.07555761070943E-17   1.21204990688532E-07   1.70949576788695E-13   0.00000000000000E+00   0.00000000000000E+00
      0.00000000000000E+00  -4.85418225669849E-11   1.04771148511545E-13   4.29642143771765E-07   4.29593706720346E-07
     -4.68275459153788E-14  -1.70000000000000E+01  -1.70000000000000E+01   0.00000000000000E+00  -1.20634394442827E-07
     -5.02356125741474E-15  -4.30164297942488E-07  -5.50798697408876E-07  -1.24122030873315E-13
      7.69935096018016E-10
      8.00000000000000E-01   8.00000000000000E-01   0.00000000000000E+00   1.47543933571455E-11   1.53815742812395E-07
      2.07555689474402E-17   1.53830497226508E-07   1.70942150546169E-13   0.00000000000000E+00   0.00000000000000E+00
      0.00000000000000E+00  -4.78171709320104E-11   1.39042223708305E-13   3.58876435632728E-07   3.58828757504020E-07
     -4.68121069446342E-14  -1.70000000000000E+01  -1.70000000000000E+01   0.00000000000000E+00  -8.51651414022119E-08
     -5.02380210074625E-15  -4.27494108304512E-07  -5.12659254730526E-07  -1.24130043601535E-13
      8.86838652934879E-10
      8.00000000000000E-01   8.00000000000000E-01   0.00000000000000E+00   1.31841617133407E-11   2.00694920123403E-07
      2.07558328016013E-17   2.00708104305872E-07   1.70935763752738E-13   0.00000000000000E+00   0.00000000000000E+00
      0.00000000000000E+00  -4.30054788200571E-11   1.94552665232045E-13   2.58915743857661E-07   2.58872932931506E-07
     -4.67986516615363E-14  -1.70000000000000E+01  -1.70000000000000E+01   0.00000000000000E+00  -3.62597709176388E-08
     -5.02401450096796E-15  -4.23321261295725E-07  -4.59581037237378E-07  -1.24137112091201E-13
      9.74516320622526E-10
      8.00000000000000E-01   8.00000000000000E-01   0.00000000000000E+00   1.08898880656745E-11   2.30788722798195E-07
      2.07558615589863E-17   2.30799612707017E-07   1.70934263784064E-13   0.00000000000000E+00   0.00000000000000E+00
      0.00000000000000E+00  -3.72237172780638E-11   2.37349522765886E-13   1.93021997956674E-07   1.92985011588919E-07
     -4.67954160468072E-14  -1.70000000000000E+01  -1.70000000000000E+01   0.00000000000000E+00  -3.66930962770221E-09
     -5.02406672883487E-15  -4.20115309644166E-07  -4.23784624295935E-07  -1.24138847737257E-13
      1.10603282215400E-09
      8.00000000000000E-01   8.00000000000000E-01   0.00000000000000E+00   6.68044331540615E-12   2.63597161437128E-07
      2.07561413518866E-17   2.63603841901199E-07   1.70935942945587E-13   0.00000000000000E+00   0.00000000000000E+00
      0.00000000000000E+00  -2.69253219779809E-11   2.98985966322296E-13   1.14239835784168E-07   1.14213209448156E-07
     -4.67993679183469E-14  -1.70000000000000E+01  -1.70000000000000E+01   0.00000000000000E+00   3.73842964005144E-08
     -5.02399884819614E-15  -4.15201342725871E-07  -3.77817051349356E-07  -1.24136575027241E-13
      1.20467019830260E-09
      8.00000000000000E-01   8.00000000000000E-01   0.00000000000000E+00   3.40963596489117E-12   2.77592703665038E-07
      2.07560913043177E-17   2.77596113321759E-07   1.70939302802591E-13   0.00000000000000E+00   0.00000000000000E+00
      0.00000000000000E+00  -1.90073201440194E-11   3.40542826427134E-13   7.21463551345661E-08   7.21276883572485E-08
     -4.68076364288645E-14  -1.70000000000000E+01  -1.70000000000000E+01   0.00000000000000E+00   6.16690110739554E-08
     -5.02385192414694E-15  -4.11392807729111E-07  -3.49723801679007E-07  -1.24131666373726E-13
      1.35262626252550E-09
      8.00000000000000E-01   8.00000000000000E-01   0.00000000000000E+00  -9.70663769307616E-13   2.82360472692178E-07
      2.07560887145395E-17   2.82359502049165E-07   1.70945752220809E-13   0.00000000000000E+00   0.00000000000000E+00
      0.00000000000000E+00  -8.56538949819685E-12   3.91088439632994E-13   3.46321422588944E-08   3.46239679578359E-08
     -4.68252501175037E-14  -1.70000000000000E+01  -1.70000000000000E+01   0.00000000000000E+00   8.83177372303959E-08
     -5.02351768966822E-15  -4.05301202213879E-07  -3.16983470007001E-07  -1.24120502103305E-13
      1.46359331069268E-09
      8.00000000000000E-01   8.00000000000000E-01   0.00000000000000E+00  -3.53683453649218E-12   2.75051646092142E-07
      2.07560772987867E-17   2.75048109278361E-07   1.70950617200197E-13   0.00000000000000E+00   0.00000000000000E+00
      0.00000000000000E+00  -2.54946715232097E-12   4.18075688788882E-13   2.34477449523573E-08   2.34456135608938E-08
     -4.68406838720597E-14  -1.70000000000000E+01  -1.70000000000000E+01   0.00000000000000E+00   1.01756612927461E-07
     -5.02320127741321E-15  -4.00250330743515E-07  -2.98493722839255E-07  -1.24109933328137E-13
      1.63004388294345E-09
      8.00000000000000E-01   8.00000000000000E-01   0.00000000000000E+00  -5.93528737491395E-12   2.52223188495963E-07
      2.07559794652642E-17   2.52217253229344E-07   1.70956319751525E-13   0.00000000000000E+00   0.00000000000000E+00
      0.00000000000000E+00   3.13818013529810E-12   4.40198094728682E-13   2.50207971849380E-08   2.50243755631680E-08
     -4.68644125011795E-14  -1.70000000000000E+01  -1.70000000000000E+01   0.00000000000000E+00   1.14166871687198E-07
     -5.02266168188341E-15  -3.91408495457049E-07  -2.77241628792513E-07  -1.24091907250346E-13
      1.75488181213153E-09
      8.00000000000000E-01   8.00000000000000E-01   0.00000000000000E+00  -6.65766185006376E-12   2.29752203240049E-07
      2.07558231682727E-17   2.29745545598954E-07   1.70958756083398E-13   0.00000000000000E+00   0.00000000000000E+00
      0.00000000000000E+00   5.11060040066529E-12   4.43386769841972E-13   3.48372875516363E-08   3.48428415388068E-08
     -4.68814109163023E-14  -1.70000000000000E+01  -1.70000000000000E+01   0.00000000000000E+00   1.18847733028395E-07
     -5.02222591078946E-15  -3.83436115143931E-07  -2.64588387137762E-07  -1.24077345167095E-13
      1.94213870591364E-09
      8.00000000000000E-01   8.00000000000000E-01   0.00000000000000E+00  -6.52263259480714E-12   1.94453786131034E-07
      2.07557839451174E-17   1.94447263519195E-07   1.70959232820040E-13   0.00000000000000E+00   0.00000000000000E+00
      0.00000000000000E+00   5.68781017533633E-12   4.31110138348283E-13   5.40074628169160E-08   5.40135817372297E-08
     -4.69043263050246E-14  -1.70000000000000E+01  -1.70000000000000E+01   0.00000000000000E+00   1.20287698102175E-07
     -5.02155482529160E-15  -3.68748538337044E-07  -2.48460845256424E-07  -1.24054906515015E-13
      2.08258137625022E-09
      8.00000000000000E-01   8.00000000000000E-01   0.00000000000000E+00  -5.87813913241655E-12   1.69686112660178E-07
      2.07556413641301E-17   1.69680234541801E-07   1.70957489599960E-13   0.00000000000000E+00   0.00000000000000E+00
      0.00000000000000E+00   5.12070725210605E-12   4.12173845037426E-13   6.81889672617624E-08   6.81945001428595E-08
     -4.69193034243958E-14  -1.70000000000000E+01  -1.70000000000000E+01   0.00000000000000E+00   1.17563307065974E-07
     -5.02105516361636E-15  -3.55438036729578E-07  -2.37874734684660E-07  -1.24038186175564E-13
      2.29324538175510E-09
      8.00000000000000E-01   8.00000000000000E-01   0.00000000000000E+00  -4.68264011617582E-12   1.38108467157490E-07
      2.07556620028788E-17   1.38103784538130E-07   1.70952942571251E-13   0.00000000000000E+00   0.00000000000000E+00
      0.00000000000000E+00   3.87967497471938E-12   3.75715391719483E-13   8.58115566683901E-08   8.58158120587565E-08
     -4.69385952019839E-14  -1.70000000000000E+01  -1.70000000000000E+01   0.00000000000000E+00   1.08275680921048E-07
     -5.02034352385490E-15  -3.32195272497590E-07  -2.23919596596886E-07  -1.24014347369268E-13
      2.45124338588376E-09
      8.00000000000000E-01   8.00000000000000E-01   0.00000000000000E+00  -3.84006259166592E-12   1.19025440558758E-07
      2.07554349716198E-17   1.19021600516921E-07   1.70949043734463E-13   0.00000000000000E+00   0.00000000000000E+00
      0.00000000000000E+00   3.03345947565973E-12   3.46127915827574E-13   9.59147442569292E-08   9.59181238443207E-08
     -4.69510075898375E-14  -1.70000000000000E+01  -1.70000000000000E+01   0.00000000000000E+00   9.80061254585138E-08
     -5.01985718449188E-15  -3.12945844799898E-07  -2.14939724361242E-07  -1.23998036144626E-13
      2.56974188898025E-09
      8.00000000000000E-01   8.00000000000000E-01   0.00000000000000E+00  -3.29313032263521E-12   1.07051109445927E-07
      2.07554919927852E-17   1.07047816336360E-07   1.70946356120324E-13   0.00000000000000E+00   0.00000000000000E+00
      0.00000000000000E+00   2.52361401848271E-12   3.24448680106595E-13   1.01995475801315E-07   1.01998323864014E-07
     -4.69594062132770E-14  -1.70000000000000E+01  -1.70000000000000E+01   0.00000000000000E+00   8.90391910558186E-08
     -5.01952694284268E-15  -2.98085326236665E-07  -2.09046140200373E-07  -1.23986949907048E-13
      2.74748964362499E-09
      8.00000000000000E-01   8.00000000000000E-01   0.00000000000000E+00  -2.62224544826261E-12   9.21865394497538E-08
      2.07553493800965E-17   9.21839172250609E-08   1.70943244252641E-13   0.00000000000000E+00   0.00000000000000E+00
      0.00000000000000E+00   1.96553646704115E-12   2.94418209602994E-13   1.09334637758418E-07   1.09336897713095E-07
     -4.69708452808962E-14  -1.70000000000000E+01  -1.70000000000000E+01   0.00000000000000E+00   7.46452439889238E-08
     -5.01909390261708E-15  -2.76166053907986E-07  -2.01520814938156E-07  -1.23972398971745E-13
      2.88080045960855E-09
      8.00000000000000E-01   8.00000000000000E-01   0.00000000000000E+00  -2.22675330645949E-12   8.30414721657538E-08
      2.07553673132842E-17   8.30392454332027E-08   1.70941833653643E-13   0.00000000000000E+00   0.00000000000000E+00
      0.00000000000000E+00   1.68159962295287E-12   2.74463390960715E-13   1.13810240865824E-07   1.13812196928838E-07
     -4.69786611685597E-14  -1.70000000000000E+01  -1.70000000000000E+01   0.00000000000000E+00   6.38060830292081E-08
     -5.01881958936655E-15  -2.60657520372429E-07  -1.96851442362041E-07  -1.23963172485084E-13
      3.08076668358388E-09
      8.00000000000000E-01   8.00000000000000E-01   0.00000000000000E+00  -1.76717604852060E-12   7.17623771170271E-08
      2.07553210099935E-17   7.17606099617339E-08   1.70941321161350E-13   0.00000000000000E+00   0.00000000000000E+00
      0.00000000000000E+00   1.39421641221700E-12   2.49149053443028E-13   1.19463868345534E-07   1.19465511710999E-07
     -4.69893802600012E-14  -1.70000000000000E+01  -1.70000000000000E+01   0.00000000000000E+00   4.86952223483527E-08
     -5.01848596353783E-15  -2.39921339002600E-07  -1.91226121672734E-07  -1.23951940901349E-13
      3.38071601954688E-09
      8.00000000000000E-01   8.00000000000000E-01   0.00000000000000E+00  -1.28694527964171E-12   5.88610211568230E-08
      2.07552422384083E-17   5.88597342322986E-08   1.70943714886866E-13   0.00000000000000E+00   0.00000000000000E+00
      0.00000000000000E+00   1.12823346399537E-12   2.21016122190457E-13   1.26424097352237E-07   1.26425446601823E-07
     -4.70035634105286E-14  -1.70000000000000E+01  -1.70000000000000E+01   0.00000000000000E+00   3.04302602430696E-08
     -5.01813615148697E-15  -2.15715436059055E-07  -1.85285180834121E-07  -1.23940151476337E-13
      3.83064002349138E-09
      8.00000000000000E-01   8.00000000000000E-01   0.00000000000000E+00  -8.45536563534479E-13   4.54069477152407E-08
      2.07552073172714E-17   4.54061021994324E-08   1.70951798213910E-13   0.00000000000000E+00   0.00000000000000E+00
      0.00000000000000E+00   8.59893178049301E-13   1.96056002338587E-13   1.34682570701609E-07   1.34683626650790E-07
     -4.70213698463259E-14  -1.70000000000000E+01  -1.70000000000000E+01   0.00000000000000E+00   1.37891879926675E-08
     -5.01784795233260E-15  -1.93878911825042E-07  -1.80089728850222E-07  -1.23930428367585E-13
      4.50552602940813E-09
      8.00000000000000E-01   8.00000000000000E-01   0.00000000000000E+00  -4.96758836915322E-13   3.27789508894696E-08
      2.07551535775390E-17   3.27784541513878E-08   1.70966722765616E-13   0.00000000000000E+00   0.00000000000000E+00
      0.00000000000000E+00   5.63300521553210E-13   1.80444212452480E-13   1.43545489294385E-07   1.43546233039119E-07
     -4.70421558621161E-14  -1.70000000000000E+01  -1.70000000000000E+01   0.00000000000000E+00   4.55644882109098E-09
     -5.01767434785869E-15  -1.80881130993923E-07  -1.76324687190507E-07  -1.23924566903500E-13
      5.51785503828325E-09
      8.00000000000000E-01   8.00000000000000E-01   0.00000000000000E+00  -2.58909561354926E-13   2.21876514706404E-08
      2.07551509833715E-17   2.21873925818342E-08   1.70986003023578E-13   0.00000000000000E+00   0.00000000000000E+00
      0.00000000000000E+00   2.96189612805116E-13   1.72710738846902E-13   1.51478430210449E-07   1.51478899110801E-07
     -4.70644958018723E-14  -1.70000000000000E+01  -1.70000000000000E+01   0.00000000000000E+00   1.79693181375543E-09
     -5.01758400081356E-15  -1.75463218488807E-07  -1.73666291692635E-07  -1.23921507221706E-13
      7.03634855159594E-09
      8.00000000000000E-01   8.00000000000000E-01   0.00000000000000E+00  -1.16512368640634E-13   1.43604703589770E-08
      2.07551099803848E-17   1.43603538673634E-08   1.71006493420876E-13   0.00000000000000E+00   0.00000000000000E+00
      0.00000000000000E+00   1.25820633990425E-13   1.62889556672906E-13   1.57251207237635E-07   1.57251495947826E-07
     -4.70868947863446E-14  -1.70000000000000E+01  -1.70000000000000E+01   0.00000000000000E+00   7.99015988597597E-10
     -5.01752786770955E-15  -1.72410860786259E-07  -1.71611849815189E-07  -1.23919598634532E-13
      9.31408882156496E-09
      8.00000000000000E-01   8.00000000000000E-01   0.00000000000000E+00  -4.57789931842488E-14   9.34896101644159E-09
      2.07550750248883E-17   9.34891525820348E-09   1.71026925989038E-13   0.00000000000000E+00   0.00000000000000E+00
      0.00000000000000E+00   3.98808658462011E-14   1.43874806639683E-13   1.60587123776599E-07   1.60587307532272E-07
     -4.71086607075856E-14  -1.70000000000000E+01  -1.70000000000000E+01   0.00000000000000E+00   4.12461312135070E-10
     -5.01748820867126E-15  -1.70348679085121E-07  -1.69936222790475E-07  -1.23918265281452E-13
      1.27306992265185E-08
      8.00000000000000E-01   8.00000000000000E-01   0.00000000000000E+00  -1.90299119719686E-14   6.37785064635608E-09
      2.07550887429873E-17   6.37783163719920E-09   1.71047468513820E-13   0.00000000000000E+00   0.00000000000000E+00
      0.00000000000000E+00   9.90830492387037E-15   1.16144888997318E-13   1.62053355181974E-07   1.62053481235168E-07
     -4.71303133499115E-14  -1.70000000000000E+01  -1.70000000000000E+01   0.00000000000000E+00   2.50449637779213E-10
     -5.01745454590555E-15  -1.68681757492692E-07  -1.68431312872367E-07  -1.23917155163909E-13
      1.77306992265185E-08
      8.00000000000000E-01   8.00000000000000E-01   0.00000000000000E+00  -1.03962461797542E-14   4.36587954709657E-09
      2.07550544233434E-17   4.36586917160545E-09   1.71068152827684E-13   0.00000000000000E+00   0.00000000000000E+00
      0.00000000000000E+00   3.19648320111654E-15   8.43632442441523E-14   1.62629470217686E-07   1.62629557777413E-07
     -4.71520213128224E-14  -1.70000000000000E+01  -1.70000000000000E+01   0.00000000000000E+00   1.63360513194848E-10
     -5.01742309153886E-15  -1.67158782444791E-07  -1.66995426949019E-07  -1.23916131514861E-13
      2.27306992265185E-08
      8.00000000000000E-01   8.00000000000000E-01   0.00000000000000E+00  -7.03306420223816E-15   3.15545584628635E-09
      2.07550778076854E-17   3.15544883397723E-09   1.71082728989719E-13   0.00000000000000E+00   0.00000000000000E+00
      0.00000000000000E+00   1.71395823158680E-15   6.18003966895012E-14   1.62853662758388E-07   1.62853726272743E-07
     -4.71672876645738E-14  -1.70000000000000E+01  -1.70000000000000E+01   0.00000000000000E+00   1.14591664639427E-10
     -5.01740178148287E-15  -1.66123761753958E-07  -1.66009175106721E-07  -1.23915441325145E-13
      2.77306992265185E-08
      8.00000000000000E-01   8.00000000000000E-01   0.00000000000000E+00  -4.95937119240896E-15   2.32305210747905E-09
      2.07550629905358E-17   2.32304716886292E-09   1.71093380389283E-13   0.00000000000000E+00   0.00000000000000E+00
      0.00000000000000E+00   1.01985116337730E-15   4.56986164611191E-14   1.62976537288193E-07   1.62976584006660E-07
     -4.71784295014014E-14  -1.70000000000000E+01  -1.70000000000000E+01   0.00000000000000E+00   8.25415801209282E-11
     -5.01738662297885E-15  -1.65382167738258E-07  -1.65299631175523E-07  -1.23914950887881E-13
      3.27306992265185E-08
      8.00000000000000E-01   8.00000000000000E-01   0.00000000000000E+00  -3.56636035853041E-15   1.72868717253202E-09
      2.07550643514777E-17   1.72868362692673E-09   1.71101276518683E-13   0.00000000000000E+00   0.00000000000000E+00