DF-ISE text

Info {
  version   = 1.0
  type      = xyplot
  datasets  = [
    "time"
    "Ntop OuterVoltage" "Ntop InnerVoltage" "Ntop QuasiFermiPotential" "Ntop DisplacementCurrent" "Ntop eCurrent"
    "Ntop hCurrent" "Ntop TotalCurrent" "Ntop Charge" "Ptop OuterVoltage" "Ptop InnerVoltage"
    "Ptop QuasiFermiPotential" "Ptop DisplacementCurrent" "Ptop eCurrent" "Ptop hCurrent" "Ptop TotalCurrent"
    "Ptop Charge" "Pbot OuterVoltage" "Pbot InnerVoltage" "Pbot QuasiFermiPotential" "Pbot DisplacementCurrent"
    "Pbot eCurrent" "Pbot hCurrent" "Pbot TotalCurrent" "Pbot Charge" ]
  functions = [
    Time
    OuterVoltage InnerVoltage QuasiFermiPotential DisplacementCurrent eCurrent
    hCurrent TotalCurrent Charge OuterVoltage InnerVoltage
    QuasiFermiPotential DisplacementCurrent eCurrent hCurrent TotalCurrent
    Charge OuterVoltage InnerVoltage QuasiFermiPotential DisplacementCurrent
    eCurrent hCurrent TotalCurrent Charge ]
}

Data {
      5.00000000000000E-13
      8.00000000000000E-01   8.00000000000000E-01   0.00000000000000E+00   3.30590866434280E-15   2.10160577597942E-13
      2.07480348125155E-17   2.13487234297097E-13   1.66264157121340E-13   0.00000000000000E+00   0.00000000000000E+00
      0.00000000000000E+00  -1.09966051456341E-13  -1.97164502216298E-16   7.89920625099976E-12   7.78904303504121E-12
     -7.55973310309783E-14  -1.10000000000000E+01  -1.10000000000000E+01   0.00000000000000E+00  -1.91300668056774E-13
      1.32007459219965E-11  -2.10119755232780E-11  -8.00253026933830E-12  -9.06668260903616E-14
      1.25000000000000E-12
      8.00000000000000E-01   8.00000000000000E-01   0.00000000000000E+00   2.67942800348134E-14   5.03467428878747E-13
      2.07480347920738E-17   5.30282456948352E-13   1.66264157120251E-13   0.00000000000000E+00   0.00000000000000E+00
      0.00000000000000E+00  -4.71877356835258E-14  -1.97164502224192E-16   8.87692528530593E-12   8.82954038512018E-12
     -7.55973310294041E-14  -1.10000000000000E+01  -1.10000000000000E+01   0.00000000000000E+00  -1.15399056447131E-12
      6.09131505180721E-11  -6.91189827956693E-11  -9.35982284206851E-12  -9.06668260908466E-14
      2.37500000000000E-12
      8.00000000000000E-01   8.00000000000000E-01   0.00000000000000E+00   1.72397814526330E-13   4.04582589004089E-12
      2.07480348415990E-17   4.21824445260206E-12   1.66264157104155E-13   0.00000000000000E+00   0.00000000000000E+00
      0.00000000000000E+00   9.25257102369910E-13  -1.97164502320862E-16   2.03790906137122E-11   2.13041505515798E-11
     -7.55973310060647E-14  -1.10000000000000E+01  -1.10000000000000E+01   0.00000000000000E+00  -1.26483691285268E-11
      5.03868153168221E-10  -5.16742179043876E-10  -2.55223950041819E-11  -9.06668260980904E-14
      4.06250000000000E-12
      8.00000000000000E-01   8.00000000000000E-01   0.00000000000000E+00   2.58362747940818E-12   8.26075370910565E-11
      2.07480340096631E-17   8.51911853184987E-11   1.66264156627853E-13   0.00000000000000E+00   0.00000000000000E+00
      0.00000000000000E+00   1.32752268611512E-11  -1.97164500708097E-16   2.86257233251924E-10   2.99532262948575E-10
     -7.55973303117011E-14  -1.10000000000000E+01  -1.10000000000000E+01   0.00000000000000E+00  -2.68599652085346E-10
      7.63978255571351E-09  -7.75590635189524E-09  -3.84723448267074E-10  -9.06668263161518E-14
      6.59375000000000E-12
      8.00000000000000E-01   8.00000000000000E-01   0.00000000000000E+00   5.14403975271802E-11   2.42336719017176E-09
      2.07481776030547E-17   2.47480760844712E-09   1.66264136291586E-13   0.00000000000000E+00   0.00000000000000E+00
      0.00000000000000E+00   2.68081282764955E-10  -1.97164520579469E-16   8.39804717476909E-09   8.66612826036953E-09
     -7.55973004578592E-14  -1.10000000000000E+01  -1.10000000000000E+01   0.00000000000000E+00  -7.95022525734807E-09
      1.52755481378971E-07  -1.55946191990440E-07  -1.11409358688167E-08  -9.06668358337270E-14
      1.03906250000000E-11
      8.00000000000000E-01   8.00000000000000E-01   0.00000000000000E+00   4.30076437900816E-10   3.28915052812627E-08
      2.07471800155584E-17   3.33215817399107E-08   1.66263708148918E-13   0.00000000000000E+00   0.00000000000000E+00
      0.00000000000000E+00   2.24000905331612E-09  -1.97164356890643E-16   1.15798296420145E-07   1.18038305276297E-07
     -7.55966670178360E-14  -1.10000000000000E+01  -1.10000000000000E+01   0.00000000000000E+00  -1.08283854724518E-07
      1.26924293256612E-06  -1.31231896485781E-06  -1.51359887016208E-07  -9.06670411310820E-14
      1.60859375000000E-11
      8.00000000000000E-01   8.00000000000000E-01   0.00000000000000E+00   2.50132514304477E-10   8.12972780203768E-08
      2.07476167711358E-17   8.15474105554289E-08   1.66261557378680E-13   0.00000000000000E+00   0.00000000000000E+00
      0.00000000000000E+00   1.17044730837328E-09  -1.97163389761299E-16   2.85744026959774E-07   2.86914474070984E-07
     -7.55934383625935E-14  -1.10000000000000E+01  -1.10000000000000E+01   0.00000000000000E+00  -2.63853440948483E-07
      6.68803777099906E-07  -7.73412220777836E-07  -3.68461884626413E-07  -9.06681190160856E-14
      2.46289062500000E-11
      8.00000000000000E-01   8.00000000000000E-01   0.00000000000000E+00   2.92450341529581E-11   1.06481144049388E-07
      2.07486115882394E-17   1.06510389104290E-07   1.66256787963100E-13   0.00000000000000E+00   0.00000000000000E+00
      0.00000000000000E+00  -2.28327938963997E-11  -1.97163129880472E-16   3.53799257881676E-07   3.53776424890616E-07
     -7.55860954533716E-14  -1.10000000000000E+01  -1.10000000000000E+01   0.00000000000000E+00  -3.27570243647393E-07
      1.23928363414363E-09  -1.33955853981655E-07  -4.60286813994905E-07  -9.06706925097280E-14
      3.74433593750000E-11
      8.00000000000000E-01   8.00000000000000E-01   0.00000000000000E+00   2.40553519508206E-11   1.15452298252466E-07
      2.07482579770348E-17   1.15476353625165E-07   1.66249948116203E-13   0.00000000000000E+00   0.00000000000000E+00
      0.00000000000000E+00  -3.05147257238614E-11  -1.97161726856278E-16   3.47347461140070E-07   3.47316946217185E-07
     -7.55750765222737E-14  -1.10000000000000E+01  -1.10000000000000E+01   0.00000000000000E+00  -3.24410353990886E-07
     -3.61659056326907E-15  -1.38382942234874E-07  -4.62793299842350E-07  -9.06748715939297E-14
      5.66650390625000E-11
      8.00000000000000E-01   8.00000000000000E-01   0.00000000000000E+00   2.16842077093663E-11   1.27163509440848E-07
      2.07476781507322E-17   1.27185193669305E-07   1.66241491878313E-13   0.00000000000000E+00   0.00000000000000E+00
      0.00000000000000E+00  -3.28471210459015E-11  -1.97116411420605E-16   3.35497412768347E-07   3.35464565450185E-07
     -7.55604542025536E-14  -1.10000000000000E+01  -1.10000000000000E+01   0.00000000000000E+00  -3.17120655598290E-07
     -3.76246255912322E-15  -1.45529099758737E-07  -4.62649759119490E-07  -9.06810376757604E-14
      8.54975585937500E-11
      8.00000000000000E-01   8.00000000000000E-01   0.00000000000000E+00   2.14248128251335E-11   1.43754664183641E-07
      2.07482784943474E-17   1.43776089017215E-07   1.66231703633173E-13   0.00000000000000E+00   0.00000000000000E+00
      0.00000000000000E+00  -3.68448774889292E-11  -1.96172358547866E-16   3.16181187922545E-07   3.16144342848884E-07
     -7.55416875397473E-14  -1.10000000000000E+01  -1.10000000000000E+01   0.00000000000000E+00  -3.05668734760213E-07
     -3.86350433370140E-15  -1.54251693242381E-07  -4.59920431866098E-07  -9.06900160934248E-14
      1.28746337890625E-10
      8.00000000000000E-01   8.00000000000000E-01   0.00000000000000E+00   2.37916818011571E-11   1.70090272469222E-07
      2.07483349682674E-17   1.70114064171772E-07   1.66221343863774E-13   0.00000000000000E+00   0.00000000000000E+00
      0.00000000000000E+00  -4.25702088008894E-11  -1.80951225909688E-16   2.83248404242775E-07   2.83205833853023E-07
     -7.55184686428698E-14  -1.10000000000000E+01  -1.10000000000000E+01   0.00000000000000E+00  -2.89119219010229E-07
     -3.92154463694204E-15  -1.64200675093021E-07  -4.53319898024795E-07  -9.07028752209051E-14
      1.93619506835937E-10
      8.00000000000000E-01   8.00000000000000E-01   0.00000000000000E+00   2.53937133155187E-11   2.13261335867379E-07
      2.07486610732083E-17   2.13286729601443E-07   1.66212257595643E-13   0.00000000000000E+00   0.00000000000000E+00
      0.00000000000000E+00  -4.53700700572827E-11  -3.43933833283716E-18   2.28647469216892E-07   2.28602099143395E-07
     -7.54913356794260E-14  -1.10000000000000E+01  -1.10000000000000E+01   0.00000000000000E+00  -2.67608026045615E-07
     -3.94582734312865E-15  -1.74280798753396E-07  -4.41888828744838E-07  -9.07209219162161E-14
      2.42274383544922E-10
      8.00000000000000E-01   8.00000000000000E-01   0.00000000000000E+00   2.45215188333660E-11   2.45896259580266E-07
      2.07486617506049E-17   2.45920781119848E-07   1.66209335095902E-13   0.00000000000000E+00   0.00000000000000E+00
      0.00000000000000E+00  -4.42763120538041E-11   4.35082180325504E-16   1.87188179246478E-07   1.87143903369506E-07
     -7.54757284679420E-14  -1.10000000000000E+01  -1.10000000000000E+01   0.00000000000000E+00  -2.53947685019891E-07
     -3.94998892118820E-15  -1.79116995519476E-07  -4.33064684489355E-07  -9.07336066279601E-14
      3.15256698608398E-10
      8.00000000000000E-01   8.00000000000000E-01   0.00000000000000E+00   2.12822137680520E-11   2.90770034674289E-07
      2.07488087079805E-17   2.90791316908806E-07   1.66209922908660E-13   0.00000000000000E+00   0.00000000000000E+00
      0.00000000000000E+00  -4.05155870808666E-11   2.09034416004784E-15   1.28380287949332E-07   1.28339774452595E-07
     -7.54584555223258E-14  -1.10000000000000E+01  -1.10000000000000E+01   0.00000000000000E+00  -2.35642865583948E-07
     -3.95198848490861E-15  -1.83488221825465E-07  -4.19131091361401E-07  -9.07514673863341E-14
      3.69993434906006E-10
      8.00000000000000E-01   8.00000000000000E-01   0.00000000000000E+00   1.78658915554862E-11   3.19431396756035E-07
      2.07489503121633E-17   3.19449262668340E-07   1.66213601794319E-13   0.00000000000000E+00   0.00000000000000E+00
      0.00000000000000E+00  -3.65233935187618E-11   4.42468772712299E-15   8.83840602776720E-08   8.83475413088410E-08
     -7.54495924098432E-14  -1.10000000000000E+01  -1.10000000000000E+01   0.00000000000000E+00  -2.22639164531911E-07
     -3.95259232719046E-15  -1.85157635492677E-07  -4.07796803977180E-07  -9.07640093844753E-14
      4.52098539352417E-10
      8.00000000000000E-01   8.00000000000000E-01   0.00000000000000E+00   1.21964373193137E-11   3.52393369155810E-07
      2.07489700809325E-17   3.52405565613878E-07   1.66222972950886E-13   0.00000000000000E+00   0.00000000000000E+00
      0.00000000000000E+00  -2.97177822083548E-11   1.00862163400923E-14   3.68335060643496E-08   3.68037983683576E-08
     -7.54414819982494E-14  -1.10000000000000E+01  -1.10000000000000E+01   0.00000000000000E+00  -2.03170168567376E-07
     -3.95326771693073E-15  -1.86039191461592E-07  -3.89209363982236E-07  -9.07814909526364E-14
      5.13677367687225E-10
      8.00000000000000E-01   8.00000000000000E-01   0.00000000000000E+00   8.14168318985329E-12   3.69084401968430E-07
      2.07491164229482E-17   3.69092543672369E-07   1.66232236741981E-13   0.00000000000000E+00   0.00000000000000E+00
      0.00000000000000E+00  -2.47285678040911E-11   1.61202635078532E-14   5.08996674591434E-09   5.06525429837376E-09
     -7.54386912207954E-14  -1.10000000000000E+01  -1.10000000000000E+01   0.00000000000000E+00  -1.88322298448824E-07
     -3.95370619282917E-15  -1.85835495568213E-07  -3.74157797970743E-07  -9.07935455211861E-14
      5.59861488938332E-10
      8.00000000000000E-01   8.00000000000000E-01   0.00000000000000E+00   5.47519206699695E-12   3.77470952579677E-07
      2.07491560775819E-17   3.77476427792493E-07   1.66240043794056E-13   0.00000000000000E+00   0.00000000000000E+00
      0.00000000000000E+00  -2.13980861027885E-11   2.16381097209833E-14  -1.50839733871652E-08  -1.51053498351583E-08
     -7.54380617879665E-14  -1.10000000000000E+01  -1.10000000000000E+01   0.00000000000000E+00  -1.77006706458617E-07
     -3.95401157325333E-15  -1.85364367544707E-07  -3.62371077957335E-07  -9.08019820060894E-14
      6.29137670814991E-10
      8.00000000000000E-01   8.00000000000000E-01   0.00000000000000E+00   2.22940778419024E-12   3.84550450304096E-07
      2.07491968259795E-17   3.84552679732629E-07   1.66252644934001E-13   0.00000000000000E+00   0.00000000000000E+00
      0.00000000000000E+00  -1.72755498643085E-11   3.14008764342786E-14  -4.04158415477074E-08  -4.04330856966953E-08
     -7.54389957612528E-14  -1.10000000000000E+01  -1.10000000000000E+01   0.00000000000000E+00  -1.59805343116266E-07
     -3.95443339861007E-15  -1.84314246965234E-07  -3.44119594035933E-07  -9.08136491727490E-14
      7.33051943629980E-10
      8.00000000000000E-01   8.00000000000000E-01   0.00000000000000E+00  -1.05768062710810E-12   3.86026902620030E-07
      2.07492171414230E-17   3.86025844960152E-07   1.66272603545482E-13   0.00000000000000E+00   0.00000000000000E+00
      0.00000000000000E+00  -1.29235500882798E-11   4.88986667759465E-14  -6.99821700404790E-08  -6.99950446919005E-08
     -7.54437003747889E-14  -1.10000000000000E+01  -1.10000000000000E+01   0.00000000000000E+00  -1.33780060303226E-07
     -3.95498448528144E-15  -1.82250736010042E-07  -3.16030800268252E-07  -9.08289031706923E-14
      8.10987648241222E-10
      8.00000000000000E-01   8.00000000000000E-01   0.00000000000000E+00  -2.56026325674262E-12   3.82242733932498E-07
      2.07491954705507E-17   3.82240173689990E-07   1.66287839534147E-13   0.00000000000000E+00   0.00000000000000E+00
      0.00000000000000E+00  -1.07577946854735E-11   6.37180103578198E-14  -8.74035918739119E-08  -8.74142859505870E-08
     -7.54492680578150E-14  -1.10000000000000E+01  -1.10000000000000E+01   0.00000000000000E+00  -1.14349992771610E-07
     -3.95533355621884E-15  -1.80475891012460E-07  -2.94825887739404E-07  -9.08385714763314E-14
      9.27891205158085E-10
      8.00000000000000E-01   8.00000000000000E-01   0.00000000000000E+00  -3.98500619213238E-12   3.71976574268836E-07
      2.07492036639679E-17   3.71972589283393E-07   1.66310366467011E-13   0.00000000000000E+00   0.00000000000000E+00
      0.00000000000000E+00  -8.35333634908025E-12   8.71740324300146E-14  -1.08431832584499E-07  -1.08440098746815E-07
     -7.54600963521653E-14  -1.10000000000000E+01  -1.10000000000000E+01   0.00000000000000E+00  -8.58881415467313E-08
     -3.95575565037693E-15  -1.77644345034091E-07  -2.63532490536578E-07  -9.08502701148450E-14
      1.01556887284573E-09
      8.00000000000000E-01   8.00000000000000E-01   0.00000000000000E+00  -4.77922277050771E-12   3.61711794250258E-07
      2.07491438620793E-17   3.61707015048237E-07   1.66326692948058E-13   0.00000000000000E+00   0.00000000000000E+00
      0.00000000000000E+00  -6.71335801506904E-12   1.04614909933790E-13  -1.20835462146326E-07  -1.20842070889431E-07
     -7.54697936733638E-14  -1.10000000000000E+01  -1.10000000000000E+01   0.00000000000000E+00  -6.54084928872994E-08
     -3.95599465423147E-15  -1.75456447315514E-07  -2.40864944158808E-07  -9.08568992746941E-14
      1.14708537437720E-09
      8.00000000000000E-01   8.00000000000000E-01   0.00000000000000E+00  -5.98702282515509E-12   3.42776743059419E-07
      2.07490553342724E-17   3.42770756057343E-07   1.66349765184387E-13   0.00000000000000E+00   0.00000000000000E+00
      0.00000000000000E+00  -3.92805854228786E-12   1.28270716975090E-13  -1.33907487688227E-07  -1.33911287476053E-07
     -7.54861664043448E-14  -1.10000000000000E+01  -1.10000000000000E+01   0.00000000000000E+00  -3.67094120449294E-08
     -3.95623599084336E-15  -1.72150052580126E-07  -2.08859468581292E-07  -9.08635987800419E-14
      1.34436012667441E-09
      8.00000000000000E-01   8.00000000000000E-01   0.00000000000000E+00  -7.94737368111693E-12   3.05856620207935E-07
      2.07490212202630E-17   3.05848672855003E-07   1.66379922015208E-13   0.00000000000000E+00   0.00000000000000E+00
      0.00000000000000E+00   9.42131678321825E-13   1.53830792973935E-13  -1.39133295796529E-07  -1.39132199834058E-07
     -7.55128166582991E-14  -1.10000000000000E+01  -1.10000000000000E+01   0.00000000000000E+00   4.92491294560197E-10
     -3.95636198808252E-15  -1.67208960359144E-07  -1.66716473020946E-07  -9.08671053569106E-14
      1.49231619089731E-09
      8.00000000000000E-01   8.00000000000000E-01   0.00000000000000E+00  -9.18475498075856E-12   2.71678656264515E-07
      2.07488957343709E-17   2.71669471530283E-07   1.66397984020359E-13   0.00000000000000E+00   0.00000000000000E+00
      0.00000000000000E+00   4.42669179544920E-12   1.63378127940783E-13  -1.31268569413587E-07  -1.31263979343664E-07
     -7.55326554386131E-14  -1.10000000000000E+01  -1.10000000000000E+01   0.00000000000000E+00   2.31209688812194E-08
     -3.95629767409357E-15  -1.63526457111541E-07  -1.40405492186619E-07  -9.08653285817460E-14
      1.71425028723167E-09
      8.00000000000000E-01   8.00000000000000E-01   0.00000000000000E+00  -9.84415990314410E-12   2.14376139469890E-07
      2.07487415791527E-17   2.14366295330736E-07   1.66416037779592E-13   0.00000000000000E+00   0.00000000000000E+00
      0.00000000000000E+00   7.74497359320581E-12   1.62759333064889E-13  -1.04946736389925E-07  -1.04938828656999E-07
     -7.55587529943654E-14  -1.10000000000000E+01  -1.10000000000000E+01   0.00000000000000E+00   4.85361881458170E-08
     -3.95600748331399E-15  -1.57963650863546E-07  -1.09427466673736E-07  -9.08572847852265E-14
      1.79747557335705E-09
      8.00000000000000E-01   8.00000000000000E-01   0.00000000000000E+00  -9.65126918260794E-12   1.92490652848203E-07
      2.07486537744467E-17   1.92481001599769E-07   1.66419844505230E-13   0.00000000000000E+00   0.00000000000000E+00
      0.00000000000000E+00   8.23113565532329E-12   1.58600298753803E-13  -9.23009457472321E-08  -9.22925560112780E-08
     -7.55668992340186E-14  -1.10000000000000E+01  -1.10000000000000E+01   0.00000000000000E+00   5.56456274883991E-08
     -3.95585101336605E-15  -1.55834069121039E-07  -1.00188445588491E-07  -9.08529452712112E-14
      1.85989453795109E-09
      8.00000000000000E-01   8.00000000000000E-01   0.00000000000000E+00  -9.36365136954660E-12   1.76485398460762E-07
      2.07486151159163E-17   1.76476034830141E-07   1.66421640802227E-13   0.00000000000000E+00   0.00000000000000E+00
      0.00000000000000E+00   8.32603328397572E-12   1.54398684940281E-13  -8.25035011862686E-08  -8.24950207542997E-08
     -7.55723134410613E-14  -1.10000000000000E+01  -1.10000000000000E+01   0.00000000000000E+00   6.02259248615219E-08
     -3.95572057808359E-15  -1.54206934981643E-07  -9.39810140758419E-08  -9.08493273611666E-14
      1.95352298484215E-09
      8.00000000000000E-01   8.00000000000000E-01   0.00000000000000E+00  -8.74170391562708E-12   1.53612735637735E-07
      2.07485532992891E-17   1.53603993954568E-07   1.66422713253898E-13   0.00000000000000E+00   0.00000000000000E+00
      0.00000000000000E+00   8.09197082886640E-12   1.46722296653556E-13  -6.79383794544227E-08  -6.79301407612972E-08
     -7.55793010892531E-14  -1.10000000000000E+01  -1.10000000000000E+01   0.00000000000000E+00   6.60254028148323E-08
     -3.95550733843374E-15  -1.51699252052596E-07  -8.56738531932713E-08  -9.08434121646454E-14
      2.09396565517873E-09
      8.00000000000000E-01   8.00000000000000E-01   0.00000000000000E+00  -7.53325196596310E-12   1.22753858526479E-07
      2.07484574989068E-17   1.22746325295262E-07   1.66421001503951E-13   0.00000000000000E+00   0.00000000000000E+00
      0.00000000000000E+00   7.14161522697813E-12   1.33037464773644E-13  -4.76777800614563E-08  -4.76705054087645E-08
     -7.55873411968997E-14  -1.10000000000000E+01  -1.10000000000000E+01   0.00000000000000E+00   7.26549154029590E-08
     -3.95515582544846E-15  -1.47730731334301E-07  -7.50758198864976E-08  -9.08336603070509E-14
      2.30462966068361E-09
      8.00000000000000E-01   8.00000000000000E-01   0.00000000000000E+00  -5.55252769531315E-12   8.55793188811472E-08
      2.07483292846087E-17   8.55737663742002E-08   1.66412347639874E-13   0.00000000000000E+00   0.00000000000000E+00
      0.00000000000000E+00   5.10363338703576E-12   1.10270063376258E-13  -2.33303548724971E-08  -2.33251409690467E-08
     -7.55946826423104E-14  -1.10000000000000E+01  -1.10000000000000E+01   0.00000000000000E+00   7.88658578034982E-08
     -3.95457936073173E-15  -1.41114479254073E-07  -6.22486254051537E-08  -9.08176649975627E-14
      2.46262766481227E-09
      8.00000000000000E-01   8.00000000000000E-01   0.00000000000000E+00  -4.20646979051915E-12   6.48046203397142E-08
      2.07483064900960E-17   6.48004138906720E-08   1.66402304612671E-13   0.00000000000000E+00   0.00000000000000E+00
      0.00000000000000E+00   3.56927738468270E-12   9.31578497980358E-14  -1.04754558122463E-08  -1.04717933770118E-08
     -7.55972924380346E-14  -1.10000000000000E+01  -1.10000000000000E+01   0.00000000000000E+00   8.11457994960757E-08
     -3.95412347219554E-15  -1.35474416055612E-07  -5.43286205136602E-08  -9.08050121746366E-14
      2.69962467100525E-09
      8.00000000000000E-01   8.00000000000000E-01   0.00000000000000E+00  -2.65765860505994E-12   4.29902540567277E-08
      2.07481724766062E-17   4.29875964188708E-08   1.66383989634257E-13   0.00000000000000E+00   0.00000000000000E+00
      0.00000000000000E+00   1.75842975012174E-12   6.97848755421766E-14   1.22253569415852E-09   1.22436390878418E-09
     -7.55982825103480E-14  -1.10000000000000E+01  -1.10000000000000E+01   0.00000000000000E+00   8.14749232549256E-08
     -3.95342820197448E-15  -1.25686879629152E-07  -4.42119603276550E-08  -9.07857071239090E-14
      2.87737242565000E-09
      8.00000000000000E-01   8.00000000000000E-01   0.00000000000000E+00  -1.86463551376141E-12   3.21804491310140E-08
      2.07481381497348E-17   3.21785845162484E-08   1.66369033814279E-13   0.00000000000000E+00   0.00000000000000E+00
      0.00000000000000E+00   8.49983510002845E-13   5.48298165448716E-14   5.48574007023815E-09   5.48664488356470E-09
     -7.55976535196344E-14  -1.10000000000000E+01  -1.10000000000000E+01   0.00000000000000E+00   7.95854425151623E-08
     -3.95291253590938E-15  -1.17250667962063E-07  -3.76652293998129E-08  -9.07713802946447E-14
      3.14399405761711E-09
      8.00000000000000E-01   8.00000000000000E-01   0.00000000000000E+00  -1.11328772277502E-12   2.15677967536003E-08
      2.07481317755936E-17   2.15666834866257E-08   1.66346748442383E-13   0.00000000000000E+00   0.00000000000000E+00
      0.00000000000000E+00   6.48857427225260E-14   3.69600619835311E-14   7.58642119272882E-09   7.58652303853353E-09
     -7.55958616078288E-14  -1.10000000000000E+01  -1.10000000000000E+01   0.00000000000000E+00   7.38767107888694E-08
     -3.95217553063780E-15  -1.03029913361853E-07  -2.91532065251592E-08  -9.07508868345541E-14
      3.34396028159244E-09
      8.00000000000000E-01   8.00000000000000E-01   0.00000000000000E+00  -7.81810235864839E-13   1.64695751589030E-08
      2.07481128542169E-17   1.64687933694153E-08   1.66331084888705E-13   0.00000000000000E+00   0.00000000000000E+00
      0.00000000000000E+00  -2.09930494268857E-13   2.69044138361627E-14   7.22994030793953E-09   7.22975728185910E-09
     -7.55943705863063E-14  -1.10000000000000E+01  -1.10000000000000E+01   0.00000000000000E+00   6.77635401494084E-08
     -3.95166636398579E-15  -9.14620868490164E-08  -2.36985506512744E-08  -9.07367143023984E-14
      3.64390961755544E-09
      8.00000000000000E-01   8.00000000000000E-01   0.00000000000000E+00  -4.84388555184253E-13   1.13841227197675E-08
      2.07480799830090E-17   1.13836383519604E-08   1.66310470540199E-13   0.00000000000000E+00   0.00000000000000E+00
      0.00000000000000E+00  -3.53701736687722E-13   1.61888656304710E-14   5.51529084535053E-09   5.51495333247947E-09
     -7.55924510035636E-14  -1.10000000000000E+01  -1.10000000000000E+01   0.00000000000000E+00   5.67626571931024E-08
     -3.95099552164216E-15  -7.36612449265467E-08  -1.68985916844399E-08  -9.07180195366358E-14
      3.86887161952769E-09
      8.00000000000000E-01   8.00000000000000E-01   0.00000000000000E+00  -3.52206007274214E-13   8.84670354995216E-09
      2.07480834082946E-17   8.84635136469297E-09   1.66297635429012E-13   0.00000000000000E+00   0.00000000000000E+00
      0.00000000000000E+00  -3.49097169506248E-13   1.08396047884353E-14   3.97647310290573E-09   3.97613484534102E-09
     -7.55913854211701E-14  -1.10000000000000E+01  -1.10000000000000E+01   0.00000000000000E+00   4.78665097027333E-08
     -3.95057375023860E-15  -6.06889919621936E-08  -1.28224862100340E-08  -9.07062500078410E-14
      4.20631462248606E-09
      8.00000000000000E-01   8.00000000000000E-01   0.00000000000000E+00  -2.26154681079501E-13   6.22517717702263E-09
      2.07480778406058E-17   6.22495104308962E-09   1.66282683418932E-13   0.00000000000000E+00   0.00000000000000E+00
      0.00000000000000E+00  -2.73263109631484E-13   5.72777870269517E-15   1.94372253006765E-09   1.94345499473672E-09
     -7.55903966325493E-14  -1.10000000000000E+01  -1.10000000000000E+01   0.00000000000000E+00   3.50068945853886E-08
     -3.95007405911990E-15  -4.31752966731408E-08  -8.16840603782634E-09  -9.06922867863829E-14
      4.71247912692363E-09
      8.00000000000000E-01   8.00000000000000E-01   0.00000000000000E+00  -1.21389545141845E-13   3.87873328834062E-09
      2.07480516999124E-17   3.87861191954353E-09   1.66268604053493E-13   0.00000000000000E+00   0.00000000000000E+00
      0.00000000000000E+00  -1.40557676948533E-13   1.97620216285261E-15  -6.18408931192399E-11  -6.19794745940256E-11
     -7.55899517374062E-14  -1.10000000000000E+01  -1.10000000000000E+01   0.00000000000000E+00   1.93361222781456E-08
     -3.94958710018717E-15  -2.31527507735080E-08  -3.81663244494949E-09  -9.06786523160873E-14
      5.09210250525180E-09
      8.00000000000000E-01   8.00000000000000E-01   0.00000000000000E+00  -7.84882718211678E-14   2.85783110065279E-09
      2.07480529381236E-17   2.85775263312902E-09   1.66263025488533E-13   0.00000000000000E+00   0.00000000000000E+00
      0.00000000000000E+00  -6.61655233539512E-14   8.06973268675478E-16  -8.10227948970028E-10  -8.10293307520113E-10
     -7.55901282430390E-14  -1.10000000000000E+01  -1.10000000000000E+01   0.00000000000000E+00   1.12550377499690E-08
     -3.94938202557392E-15  -1.33024931261959E-08  -2.04745932560891E-09  -9.06728972454943E-14
      5.66153757274405E-09
      8.00000000000000E-01   8.00000000000000E-01   0.00000000000000E+00  -4.23550194935787E-14   1.93973556918683E-09
      2.07480469079903E-17   1.93969323491538E-09   1.66259315491411E-13   0.00000000000000E+00   0.00000000000000E+00
      0.00000000000000E+00  -6.55682490014810E-15   9.33980154350289E-17  -1.19213626914653E-09  -1.19214273257341E-09
     -7.55907166540870E-14  -1.10000000000000E+01  -1.10000000000000E+01   0.00000000000000E+00   4.27795291133354E-09
     -3.94922915321790E-15  -5.02549946444636E-09  -7.47550502341968E-10  -9.06685988373234E-14
      6.08861387336325E-09
      8.00000000000000E-01   8.00000000000000E-01   0.00000000000000E+00  -2.81103403638051E-14   1.53452236994787E-09
      2.07480443121660E-17   1.53449428035555E-09   1.66258547749904E-13   0.00000000000000E+00   0.00000000000000E+00
      0.00000000000000E+00   1.00585998036299E-14  -8.23935829784533E-17  -1.17627874645817E-09  -1.17626877025195E-09
     -7.55912273386903E-14  -1.10000000000000E+01  -1.10000000000000E+01   0.00000000000000E+00   1.84902561273853E-09
     -3.94918379388243E-15  -2.20724717365834E-09  -3.58225510103604E-10  -9.06673204112147E-14
      6.72922832429203E-09
      8.00000000000000E-01   8.00000000000000E-01   0.00000000000000E+00  -1.65319699618062E-14   1.15177482639559E-09
      2.07480420758226E-17   1.15175831517367E-09   1.66258582126128E-13   0.00000000000000E+00   0.00000000000000E+00
      0.00000000000000E+00   1.59866858241076E-14  -1.71599508916517E-16  -1.01433219784661E-09  -1.01431638276030E-09
     -7.55919345204995E-14  -1.10000000000000E+01  -1.10000000000000E+01   0.00000000000000E+00   3.90334575252537E-10
     -3.94915997313859E-15  -5.27772558505940E-10  -1.37441932413375E-10  -9.06666476056295E-14
      7.20968916248863E-09
      8.00000000000000E-01   8.00000000000000E-01   0.00000000000000E+00  -1.19154250247202E-14   9.67181622860577E-10
      2.07480404434754E-17   9.67169728183593E-10   1.66258932753054E-13   0.00000000000000E+00   0.00000000000000E+00
      0.00000000000000E+00   1.37976110945127E-14  -1.88523359416323E-16  -8.79143305939460E-10  -8.79129696851725E-10
     -7.55923921357170E-14  -1.10000000000000E+01  -1.10000000000000E+01   0.00000000000000E+00   8.11431603429998E-11
     -3.94915620686960E-15  -1.69179242518659E-10  -8.80400313318666E-11  -9.06665406173372E-14
      7.93038041978351E-09
      8.00000000000000E-01   8.00000000000000E-01   0.00000000000000E+00  -7.88575714275346E-15   7.75119514810302E-10
      2.07480390283286E-17   7.75111649801198E-10   1.66259499121385E-13   0.00000000000000E+00   0.00000000000000E+00
      0.00000000000000E+00   1.02911119552945E-14  -1.95606656337948E-16  -7.14007974617671E-10  -7.13997879112372E-10
     -7.55929694909639E-14  -1.10000000000000E+01  -1.10000000000000E+01   0.00000000000000E+00  -3.46591173056401E-11
     -3.94915584505398E-15  -2.64507042273430E-11  -6.11137706888281E-11  -9.06665296304217E-14
      8.47089886275468E-09
      8.00000000000000E-01   8.00000000000000E-01   0.00000000000000E+00  -6.09921619153411E-15   6.72807377150650E-10
      2.07480382619148E-17   6.72801298682496E-10   1.66259883785305E-13   0.00000000000000E+00   0.00000000000000E+00