DF-ISE text

Info {
  version   = 1.0
  type      = xyplot
  datasets  = [
    "time"
    "Ntop OuterVoltage" "Ntop InnerVoltage" "Ntop QuasiFermiPotential" "Ntop DisplacementCurrent" "Ntop eCurrent"
    "Ntop hCurrent" "Ntop TotalCurrent" "Ntop Charge" "Ptop OuterVoltage" "Ptop InnerVoltage"
    "Ptop QuasiFermiPotential" "Ptop DisplacementCurrent" "Ptop eCurrent" "Ptop hCurrent" "Ptop TotalCurrent"
    "Ptop Charge" "Pbot OuterVoltage" "Pbot InnerVoltage" "Pbot QuasiFermiPotential" "Pbot DisplacementCurrent"
    "Pbot eCurrent" "Pbot hCurrent" "Pbot TotalCurrent" "Pbot Charge" ]
  functions = [
    Time
    OuterVoltage InnerVoltage QuasiFermiPotential DisplacementCurrent eCurrent
    hCurrent TotalCurrent Charge OuterVoltage InnerVoltage
    QuasiFermiPotential DisplacementCurrent eCurrent hCurrent TotalCurrent
    Charge OuterVoltage InnerVoltage QuasiFermiPotential DisplacementCurrent
    eCurrent hCurrent TotalCurrent Charge ]
}

Data {
      5.00000000000000E-13
      8.00000000000000E-01   8.00000000000000E-01   0.00000000000000E+00   1.92542215757999E-15   6.99317001809708E-12
     -6.60134109211780E-12   3.93754348136858E-13   1.71121639905492E-13   0.00000000000000E+00   0.00000000000000E+00
      0.00000000000000E+00  -1.13504331039549E-13  -1.96738758269395E-16   1.63162906010263E-07   1.63162792309194E-07
     -4.72080767803626E-14  -1.70000000000000E+01  -1.70000000000000E+01   0.00000000000000E+00  -3.28573781046434E-13
      1.31654694567531E-11  -1.63176022959217E-07  -1.63163186063541E-07  -1.23913563125129E-13
      1.25000000000000E-12
      8.00000000000000E-01   8.00000000000000E-01   0.00000000000000E+00   1.07010304212918E-13   3.21848180159182E-11
     -3.04606224575985E-11   1.83120586253264E-12   1.71121639905964E-13   0.00000000000000E+00   0.00000000000000E+00
      0.00000000000000E+00  -8.24284321341198E-14  -1.96738758268086E-16   1.63163554761432E-07   1.63163472136261E-07
     -4.72080767800194E-14  -1.70000000000000E+01  -1.70000000000000E+01   0.00000000000000E+00  -1.93801962317317E-12
      6.07542667844586E-11  -1.63224119589285E-07  -1.63165303342124E-07  -1.23913563125944E-13
      2.37500000000000E-12
      8.00000000000000E-01   8.00000000000000E-01   0.00000000000000E+00   8.15077119510977E-13   2.69981748702431E-10
     -2.52034248161059E-10   1.87625776608830E-11   1.71121639912896E-13   0.00000000000000E+00   0.00000000000000E+00
      0.00000000000000E+00   6.37920587830971E-13  -1.96738758252907E-16   1.63171065133498E-07   1.63171702857347E-07
     -4.72080767748524E-14  -1.70000000000000E+01  -1.70000000000000E+01   0.00000000000000E+00  -2.10913079096145E-11
      5.02561717583877E-10  -1.63671935844682E-07  -1.63190465435007E-07  -1.23913563138043E-13
      4.06250000000000E-12
      8.00000000000000E-01   8.00000000000000E-01   0.00000000000000E+00   1.23469282960221E-11   4.20331006935648E-09
     -3.82341798388201E-09   3.92239013770490E-10   1.71121640118995E-13   0.00000000000000E+00   0.00000000000000E+00
      0.00000000000000E+00   8.82324057714245E-12  -1.96738757896991E-16   1.63347007400862E-07   1.63355830444700E-07
     -4.72080766183324E-14  -1.70000000000000E+01  -1.70000000000000E+01   0.00000000000000E+00  -4.45756391809291E-10
      7.61998929458367E-09  -1.70922302361245E-07  -1.63748069458470E-07  -1.23913563500662E-13
      6.59375000000000E-12
      8.00000000000000E-01   8.00000000000000E-01   0.00000000000000E+00   2.47201196836600E-10   8.77616302660342E-08
     -7.65157794712452E-08   1.14930519916256E-08   1.71121649003916E-13   0.00000000000000E+00   0.00000000000000E+00
      0.00000000000000E+00   1.77556556455583E-10  -1.96738747022031E-16   1.68716103655581E-07   1.68893660015298E-07
     -4.72080697605327E-14  -1.70000000000000E+01  -1.70000000000000E+01   0.00000000000000E+00  -1.31239326053875E-08
      1.52359740691869E-07  -3.19622520093405E-07  -1.80386712006924E-07  -1.23913579243383E-13
      1.03906250000000E-11
      8.00000000000000E-01   8.00000000000000E-01   0.00000000000000E+00   2.07547822221832E-09   7.90780229579920E-07
     -6.36858641074319E-07   1.55997066727819E-07   1.71121839757502E-13   0.00000000000000E+00   0.00000000000000E+00
      0.00000000000000E+00   1.45605955864342E-09  -1.96738604450171E-16   2.39001592566698E-07   2.40457651928602E-07
     -4.72079228644590E-14  -1.70000000000000E+01  -1.70000000000000E+01   0.00000000000000E+00  -1.77772400243704E-07
      1.26595473709606E-06  -1.48463705550878E-06  -3.96454718656422E-07  -1.23913916893042E-13
      1.60859375000000E-11
      8.00000000000000E-01   8.00000000000000E-01   0.00000000000000E+00   1.21544991978386E-09   7.26179432296462E-07
     -3.40796674506711E-07   3.86598207709534E-07   1.71122856629335E-13   0.00000000000000E+00   0.00000000000000E+00
      0.00000000000000E+00   6.18040676123689E-10  -1.96738398103698E-16   3.40215784660964E-07   3.40833825140350E-07
     -4.72071816393161E-14  -1.70000000000000E+01  -1.70000000000000E+01   0.00000000000000E+00  -4.29056714396007E-07
      6.67071123191114E-07  -9.65446441644992E-07  -7.27432032849885E-07  -1.23915674990019E-13
      2.46289062500000E-11
      8.00000000000000E-01   8.00000000000000E-01   0.00000000000000E+00   1.39834913494280E-10   5.13105723646057E-07
     -8.51195869120027E-09   5.04733599868351E-07   1.71125397816279E-13   0.00000000000000E+00   0.00000000000000E+00
      0.00000000000000E+00  -1.67599379665813E-10  -1.96738357766629E-16   3.59216964224091E-07   3.59049364647687E-07
     -4.72055585575756E-14  -1.70000000000000E+01  -1.70000000000000E+01   0.00000000000000E+00  -5.28056488386826E-07
      1.23607146064022E-09  -3.36962547589851E-07  -8.63782964516037E-07  -1.23919839258704E-13
      3.74433593750000E-11
      8.00000000000000E-01   8.00000000000000E-01   0.00000000000000E+00   9.06001544759155E-11   5.45576752318984E-07
     -7.17534464898336E-09   5.38492007824477E-07   1.71129836006752E-13   0.00000000000000E+00   0.00000000000000E+00
      0.00000000000000E+00  -1.17330927791299E-10  -1.96738423924663E-16   3.25490061116486E-07   3.25372729991957E-07
     -4.72032857777464E-14  -1.70000000000000E+01  -1.70000000000000E+01   0.00000000000000E+00  -5.19082656629700E-07
     -5.01671606268569E-15  -3.44782076170016E-07  -8.63864737816432E-07  -1.23926550229007E-13
      5.66650390625000E-11
      8.00000000000000E-01   8.00000000000000E-01   0.00000000000000E+00   5.65754416508101E-11   5.75936845839778E-07
     -6.21274316439020E-09   5.69780678117038E-07   1.71136933668921E-13   0.00000000000000E+00   0.00000000000000E+00
      0.00000000000000E+00  -8.29877468860523E-11  -1.96738494006875E-16   2.89215499855853E-07   2.89132511912229E-07
     -4.72005618723688E-14  -1.70000000000000E+01  -1.70000000000000E+01   0.00000000000000E+00  -5.02768616403280E-07
     -5.01716582113214E-15  -3.56144568608821E-07  -8.58913190029267E-07  -1.23936371796552E-13
      8.54975585937500E-11
      8.00000000000000E-01   8.00000000000000E-01   0.00000000000000E+00   3.02926457090052E-11   6.00904649027607E-07
     -5.00397770851420E-09   5.95930963964802E-07   1.71148063589616E-13   0.00000000000000E+00   0.00000000000000E+00
      0.00000000000000E+00  -5.58868993525458E-11  -1.96738563021938E-16   2.51666851183210E-07   2.51610964087119E-07
     -4.71975559377802E-14  -1.70000000000000E+01  -1.70000000000000E+01   0.00000000000000E+00  -4.77835301688272E-07
     -5.01762012037243E-15  -3.69706621346028E-07  -8.47541928051920E-07  -1.23950507651836E-13
      1.28746337890625E-10
      8.00000000000000E-01   8.00000000000000E-01   0.00000000000000E+00   1.18635082713705E-11   6.16495158165361E-07
     -3.61538262819166E-09   6.12891639045440E-07   1.71165080856875E-13   0.00000000000000E+00   0.00000000000000E+00
      0.00000000000000E+00  -3.63605004385260E-11  -1.96738619950616E-16   2.14273081907648E-07   2.14236721210471E-07
     -4.71946743788586E-14  -1.70000000000000E+01  -1.70000000000000E+01   0.00000000000000E+00  -4.42669542769359E-07
     -5.01821869659873E-15  -3.84458812468332E-07  -8.27128360255910E-07  -1.23970406478017E-13
      1.93619506835937E-10
      8.00000000000000E-01   8.00000000000000E-01   0.00000000000000E+00   6.34170238504307E-13   6.19316666961412E-07
     -2.21844988962417E-09   6.17098851242026E-07   1.71190321305029E-13   0.00000000000000E+00   0.00000000000000E+00
      0.00000000000000E+00  -2.45340653105038E-11  -1.96738645836502E-16   1.77317824149025E-07   1.77293289886976E-07
     -4.71927226749605E-14  -1.70000000000000E+01  -1.70000000000000E+01   0.00000000000000E+00  -3.96235144839190E-07
     -5.01901550664572E-15  -3.98156991270797E-07  -7.94392141129002E-07  -1.23997598630069E-13
      2.42274383544922E-10
      8.00000000000000E-01   8.00000000000000E-01   0.00000000000000E+00  -2.67663872148297E-12   6.14779396387874E-07
     -1.54464568150541E-09   6.13232074067647E-07   1.71208723186246E-13   0.00000000000000E+00   0.00000000000000E+00
      0.00000000000000E+00  -2.13305602523364E-11  -1.96738643559670E-16   1.56168584955466E-07   1.56147254198475E-07
     -4.71926016663407E-14  -1.70000000000000E+01  -1.70000000000000E+01   0.00000000000000E+00  -3.65388431802797E-07
     -5.01955499327997E-15  -4.03990891443772E-07  -7.69379328266123E-07  -1.24016121519905E-13
      3.15256698608398E-10
      8.00000000000000E-01   8.00000000000000E-01   0.00000000000000E+00  -4.94058950868553E-12   6.04584751101421E-07
     -8.99374555124375E-10   6.03680435956788E-07   1.71235357713441E-13   0.00000000000000E+00   0.00000000000000E+00
      0.00000000000000E+00  -1.94110062957851E-11  -1.96738653995019E-16   1.27973004487994E-07   1.27953593284960E-07
     -4.71941241392965E-14  -1.70000000000000E+01  -1.70000000000000E+01   0.00000000000000E+00  -3.23094776948465E-07
     -5.02028610738515E-15  -4.08539247272995E-07  -7.31634029241746E-07  -1.24041233574145E-13
      3.69993434906006E-10
      8.00000000000000E-01   8.00000000000000E-01   0.00000000000000E+00  -5.78559000038382E-12   5.95760891414049E-07
     -6.04910303528380E-10   5.95150195520520E-07   1.71254601842064E-13   0.00000000000000E+00   0.00000000000000E+00
      0.00000000000000E+00  -1.87124551060230E-11  -1.96738702410177E-16   1.08132422439375E-07   1.08113709787530E-07
     -4.71964976962688E-14  -1.70000000000000E+01  -1.70000000000000E+01   0.00000000000000E+00  -2.93441384972080E-07
     -5.02077734283512E-15  -4.09822515315192E-07  -7.03263905308050E-07  -1.24058104145796E-13
      4.11045987129211E-10
      8.00000000000000E-01   8.00000000000000E-01   0.00000000000000E+00  -6.34427341658406E-12   5.88729045583579E-07
     -4.51830304953574E-10   5.88270871005209E-07   1.71268643825216E-13   0.00000000000000E+00   0.00000000000000E+00
      0.00000000000000E+00  -1.81420495741540E-11  -1.96738775772513E-16   9.37524415450291E-08   9.37342992987162E-08
     -4.71989350423717E-14  -1.70000000000000E+01  -1.70000000000000E+01   0.00000000000000E+00  -2.71958893364364E-07
     -5.02111528653210E-15  -4.10046271918448E-07  -6.82005170303927E-07  -1.24069708782844E-13
      4.72624815464020E-10
      8.00000000000000E-01   8.00000000000000E-01   0.00000000000000E+00  -7.39995512430183E-12   5.77253509460473E-07
     -2.93811867628384E-10   5.76952297637721E-07   1.71289084327168E-13   0.00000000000000E+00   0.00000000000000E+00
      0.00000000000000E+00  -1.68284994651423E-11  -1.96738959681790E-16   7.32809429567422E-08   7.32641142605381E-08
     -4.72035967037788E-14  -1.70000000000000E+01  -1.70000000000000E+01   0.00000000000000E+00  -2.40592563924377E-07
     -5.02157482572597E-15  -4.09623842952305E-07  -6.50216411898257E-07  -1.24085487623389E-13
      5.18808936715126E-10
      8.00000000000000E-01   8.00000000000000E-01   0.00000000000000E+00  -8.50849093930273E-12   5.67541082349294E-07
     -2.14983563135045E-10   5.67317590295220E-07   1.71303904344230E-13   0.00000000000000E+00   0.00000000000000E+00
      0.00000000000000E+00  -1.53172896507550E-11  -1.96739160325273E-16   5.91941702055060E-08   5.91788527191160E-08
     -4.72078369311230E-14  -1.70000000000000E+01  -1.70000000000000E+01   0.00000000000000E+00  -2.17597812466678E-07
     -5.02188296794660E-15  -4.08898625525774E-07  -6.26496443014335E-07  -1.24096067413107E-13
      5.88085118591785E-10
      8.00000000000000E-01   8.00000000000000E-01   0.00000000000000E+00  -1.08447056503138E-11   5.50146627916224E-07
     -1.36622509264242E-10   5.49999160701310E-07   1.71325206255945E-13   0.00000000000000E+00   0.00000000000000E+00
      0.00000000000000E+00  -1.20137173285194E-11  -1.96739559575093E-16   4.12239115222626E-08   4.12118976081946E-08
     -4.72152378746023E-14  -1.70000000000000E+01  -1.70000000000000E+01   0.00000000000000E+00  -1.83788886401157E-07
     -5.02228785767062E-15  -4.07422166886059E-07  -5.91211058309504E-07  -1.24109968381343E-13
      6.91999391406774E-10
      8.00000000000000E-01   8.00000000000000E-01   0.00000000000000E+00  -1.57041267461898E-11   5.14884899417728E-07
     -7.22815680373243E-11   5.14796913722944E-07   1.71354537508487E-13   0.00000000000000E+00   0.00000000000000E+00
      0.00000000000000E+00  -4.89607625362205E-12  -1.96740307331667E-16   2.45327064956232E-08   2.45278102226293E-08
     -4.72280359462548E-14  -1.70000000000000E+01  -1.70000000000000E+01   0.00000000000000E+00  -1.34586753136604E-07
     -5.02276944358692E-15  -4.04737965786200E-07  -5.39324723945573E-07  -1.24126501562232E-13
      7.69935096018016E-10
      8.00000000000000E-01   8.00000000000000E-01   0.00000000000000E+00  -1.98673360378497E-11   4.79612392563548E-07
     -4.74377598974546E-11   4.79545087467613E-07   1.71373881457806E-13   0.00000000000000E+00   0.00000000000000E+00
      0.00000000000000E+00   1.47830547907577E-12  -1.96740836459352E-16   2.21347554290059E-08   2.21362335377441E-08
     -4.72382777653476E-14  -1.70000000000000E+01  -1.70000000000000E+01   0.00000000000000E+00  -9.91213804553907E-08
     -5.02303460375698E-15  -4.02559935526932E-07  -5.01681321005357E-07  -1.24135603692458E-13
      8.86838652934879E-10
      8.00000000000000E-01   8.00000000000000E-01   0.00000000000000E+00  -2.51373201407989E-11   4.12823068940995E-07
     -2.74507409770378E-11   4.12770480879877E-07   1.71397239559800E-13   0.00000000000000E+00   0.00000000000000E+00
      0.00000000000000E+00   1.04742921813861E-11  -1.96740756907816E-16   3.58186924024752E-08   3.58291664979158E-08
     -4.72529827412527E-14  -1.70000000000000E+01  -1.70000000000000E+01   0.00000000000000E+00  -4.93415686300165E-08
     -5.02328675283778E-15  -3.99258073724490E-07  -4.48599647377793E-07  -1.24144256818547E-13
      9.74516320622526E-10
      8.00000000000000E-01   8.00000000000000E-01   0.00000000000000E+00  -2.72252019281900E-11   3.54898957793081E-07
     -1.97235711373687E-11   3.54852009020015E-07   1.71409526619595E-13   0.00000000000000E+00   0.00000000000000E+00
      0.00000000000000E+00   1.53335456915032E-11  -1.96738819907716E-16   5.76024259021170E-08   5.76177592510697E-08
     -4.72624347889585E-14  -1.70000000000000E+01  -1.70000000000000E+01   0.00000000000000E+00  -1.56439867185122E-08
     -5.02336945353134E-15  -3.96825776529204E-07  -4.12469768271085E-07  -1.24147091830637E-13
      1.10603282215400E-09
      8.00000000000000E-01   8.00000000000000E-01   0.00000000000000E+00  -2.64456117548377E-11   2.65923115173093E-07
     -1.32491575136583E-11   2.65883420403825E-07   1.71418790838037E-13   0.00000000000000E+00   0.00000000000000E+00
      0.00000000000000E+00   1.80756661521523E-11  -1.96728048570111E-16   1.00042829441749E-07   1.00060904911173E-07
     -4.72725242267760E-14  -1.70000000000000E+01  -1.70000000000000E+01   0.00000000000000E+00   2.73599119720513E-08
     -5.02334567707727E-15  -3.93304232263703E-07  -3.65944325314998E-07  -1.24146266611261E-13
      1.20467019830260E-09
      8.00000000000000E-01   8.00000000000000E-01   0.00000000000000E+00  -2.32829444688801E-11   2.04620794351160E-07
     -1.05144154113777E-11   2.04586996991279E-07   1.71418773454537E-13   0.00000000000000E+00   0.00000000000000E+00
      0.00000000000000E+00   1.68511583930687E-11  -1.96708701678685E-16   1.32979897105218E-07   1.32996748066902E-07
     -4.72765014854717E-14  -1.70000000000000E+01  -1.70000000000000E+01   0.00000000000000E+00   5.31586119048939E-08
     -5.02322957355535E-15  -3.90742351939847E-07  -3.37583745058183E-07  -1.24142271969065E-13
      1.35262626252550E-09
      8.00000000000000E-01   8.00000000000000E-01   0.00000000000000E+00  -1.67344855024786E-11   1.30981900835797E-07
     -7.93163272715306E-12   1.30957234717568E-07   1.71409431070007E-13   0.00000000000000E+00   0.00000000000000E+00
      0.00000000000000E+00   1.20878082351816E-11  -1.96648628505672E-16   1.73864202824629E-07   1.73876290436215E-07
     -4.72772283032631E-14  -1.70000000000000E+01  -1.70000000000000E+01   0.00000000000000E+00   8.20184935637527E-08
     -5.02293673540459E-15  -3.86852013694599E-07  -3.04833525153783E-07  -1.24132202766743E-13
      1.46359331069268E-09
      8.00000000000000E-01   8.00000000000000E-01   0.00000000000000E+00  -1.18962058670950E-11   9.17339208673184E-08
     -6.65714537640228E-12   9.17153675160749E-08   1.71396817456627E-13   0.00000000000000E+00   0.00000000000000E+00
      0.00000000000000E+00   7.91587368409784E-12  -1.96571977655352E-16   1.94890354990691E-07   1.94898270667803E-07
     -4.72745740816758E-14  -1.70000000000000E+01  -1.70000000000000E+01   0.00000000000000E+00   9.70701089803637E-08
     -5.02264703556507E-15  -3.83683742141595E-07  -2.86613638183878E-07  -1.24122243374951E-13
      1.63004388294345E-09
      8.00000000000000E-01   8.00000000000000E-01   0.00000000000000E+00  -6.43858275610133E-12   5.44282422420431E-08
     -5.27687623682787E-12   5.44165267830502E-08   1.71372453872362E-13   0.00000000000000E+00   0.00000000000000E+00
      0.00000000000000E+00   2.88321298433425E-12  -1.96403346192606E-16   2.11641353788015E-07   2.11644236804596E-07
     -4.72676536926555E-14  -1.70000000000000E+01  -1.70000000000000E+01   0.00000000000000E+00   1.11843182565124E-07
     -5.02213962340797E-15  -3.77903941130631E-07  -2.66060763587646E-07  -1.24104800179707E-13
      1.75488181213153E-09
      8.00000000000000E-01   8.00000000000000E-01   0.00000000000000E+00  -3.89467485315772E-12   3.86138778426320E-08
     -4.50236528449737E-12   3.86054808024944E-08   1.71351787742413E-13   0.00000000000000E+00   0.00000000000000E+00
      0.00000000000000E+00   4.57389728982084E-13  -1.96243534894441E-16   2.15454786292171E-07   2.15455243485656E-07
     -4.72613666131558E-14  -1.70000000000000E+01  -1.70000000000000E+01   0.00000000000000E+00   1.18232725610704E-07
     -5.02172134843194E-15  -3.72293444877133E-07  -2.54060724288150E-07  -1.24090421129258E-13
      1.94213870591364E-09
      8.00000000000000E-01   8.00000000000000E-01   0.00000000000000E+00  -1.86251737239682E-12   2.55045378979180E-08
     -3.59000909533194E-12   2.54990853714503E-08   1.71319739693985E-13   0.00000000000000E+00   0.00000000000000E+00
      0.00000000000000E+00  -1.43108815142530E-12  -1.95984289070388E-16   2.13433305241104E-07   2.13431873956969E-07
     -4.72518676351089E-14  -1.70000000000000E+01  -1.70000000000000E+01   0.00000000000000E+00   1.22060750040956E-07
     -5.02106543903239E-15  -3.60991704348310E-07  -2.38930959328419E-07  -1.24067872058877E-13
      2.08258137625022E-09
      8.00000000000000E-01   8.00000000000000E-01   0.00000000000000E+00  -1.17978806242754E-12   2.01806290722858E-08
     -3.04605830735869E-12   2.01764032259160E-08   1.71296060467634E-13   0.00000000000000E+00   0.00000000000000E+00
      0.00000000000000E+00  -1.95947562499784E-12  -1.95797635109906E-16   2.08832659555887E-07   2.08830699884464E-07
     -4.72452722447226E-14  -1.70000000000000E+01  -1.70000000000000E+01   0.00000000000000E+00   1.20953164908854E-07
     -5.02056851892731E-15  -3.49960262998666E-07  -2.29007103110381E-07  -1.24050788222910E-13
      2.29324538175510E-09
      8.00000000000000E-01   8.00000000000000E-01   0.00000000000000E+00  -7.17962885699030E-13   1.51530423581582E-08
     -2.38771949331308E-12   1.51499366757791E-08   1.71262743578423E-13   0.00000000000000E+00   0.00000000000000E+00
      0.00000000000000E+00  -2.09156291044205E-12  -1.95560720879451E-16   2.00614980890004E-07   2.00612889131533E-07
     -4.72367353885418E-14  -1.70000000000000E+01  -1.70000000000000E+01   0.00000000000000E+00   1.13790678671503E-07
     -5.01984774576079E-15  -3.29553499458968E-07  -2.15762825807313E-07  -1.24026008189881E-13
      2.45124338588376E-09
      8.00000000000000E-01   8.00000000000000E-01   0.00000000000000E+00  -5.61740558197509E-13   1.25402945136021E-08
     -1.99151125064837E-12   1.25377412617933E-08   1.71240166814101E-13   0.00000000000000E+00   0.00000000000000E+00
      0.00000000000000E+00  -1.94295825968845E-12  -1.95422320537100E-16   1.94527874709658E-07   1.94525931555976E-07
     -4.72314495202746E-14  -1.70000000000000E+01  -1.70000000000000E+01   0.00000000000000E+00   1.04874326000580E-07
     -5.01934480002552E-15  -3.11937993799005E-07  -2.07063672817770E-07  -1.24008717293826E-13
      2.56974188898025E-09
      8.00000000000000E-01   8.00000000000000E-01   0.00000000000000E+00  -4.84628264555822E-13   1.09235415594707E-08
     -1.73823941816778E-12   1.09213186917879E-08   1.71224844281282E-13   0.00000000000000E+00   0.00000000000000E+00
      0.00000000000000E+00  -1.77807162675714E-12  -1.95339010554690E-16   1.90323729598781E-07   1.90321951331815E-07
     -4.72280794945629E-14  -1.70000000000000E+01  -1.70000000000000E+01   0.00000000000000E+00   9.67807819134985E-08
     -5.01899712485672E-15  -2.98024046918104E-07  -2.01243270023603E-07  -1.23996764786720E-13
      2.74748964362499E-09
      8.00000000000000E-01   8.00000000000000E-01   0.00000000000000E+00  -3.94804018706629E-13   8.88241149254333E-09
     -1.41658807869729E-12   8.88060010044592E-09   1.71204613552946E-13   0.00000000000000E+00   0.00000000000000E+00
      0.00000000000000E+00  -1.50222013607340E-12  -1.95240736537422E-16   1.84766037601078E-07   1.84764535185701E-07
     -4.72238716782950E-14  -1.70000000000000E+01  -1.70000000000000E+01   0.00000000000000E+00   8.34371591979606E-08
     -5.01853103335564E-15  -2.77082289465576E-07  -1.93645135286146E-07  -1.23980741874651E-13
      3.01411127559210E-09
      8.00000000000000E-01   8.00000000000000E-01   0.00000000000000E+00  -2.92213544689117E-13   6.48886068682710E-09
     -1.04016983464826E-12   6.48752830344776E-09   1.71180346750446E-13   0.00000000000000E+00   0.00000000000000E+00
      0.00000000000000E+00  -1.10050694816439E-12  -1.95138475013746E-16   1.78163803980647E-07   1.78162703278560E-07
     -4.72191433425003E-14  -1.70000000000000E+01  -1.70000000000000E+01   0.00000000000000E+00   6.32477628873115E-08
     -5.01796265156590E-15  -2.47897989451356E-07  -1.84650231582008E-07  -1.23961203407945E-13
      3.06410283158594E-09
      8.00000000000000E-01   8.00000000000000E-01   0.00000000000000E+00  -2.29085271788387E-13   6.11612609505832E-09
     -9.81663249052920E-13   6.11491534653748E-09   1.71176568909757E-13   0.00000000000000E+00   0.00000000000000E+00
      0.00000000000000E+00  -1.02989266845434E-12  -1.95124140098108E-16   1.77147954694683E-07   1.77146924606891E-07
     -4.72184370900345E-14  -1.70000000000000E+01  -1.70000000000000E+01   0.00000000000000E+00   5.96454053963983E-08
     -5.01787329699645E-15  -2.42907240331954E-07  -1.83261839953429E-07  -1.23958131819723E-13
      3.10159649858131E-09
      8.00000000000000E-01   8.00000000000000E-01   0.00000000000000E+00  -2.64445244148961E-13   5.85022691987170E-09
     -9.39918809392880E-13   5.84902255581815E-09   1.71173883748670E-13   0.00000000000000E+00   0.00000000000000E+00
      0.00000000000000E+00  -9.77238864366749E-13  -1.95114200327393E-16   1.76428630191939E-07   1.76427652757960E-07
     -4.72179388261948E-14  -1.70000000000000E+01  -1.70000000000000E+01   0.00000000000000E+00   5.70143368303168E-08
     -5.01780967854977E-15  -2.39291007126286E-07  -1.82276675313779E-07  -1.23955944922474E-13
      3.12971674882784E-09
      8.00000000000000E-01   8.00000000000000E-01   0.00000000000000E+00  -2.55744669842909E-13   5.65820622640233E-09
     -9.09760794640291E-13   5.65704072093785E-09   1.71171950768411E-13   0.00000000000000E+00   0.00000000000000E+00
      0.00000000000000E+00  -9.52064995087539E-13  -1.95107178243213E-16   1.75912227710133E-07   1.75911275450030E-07
     -4.72175819200478E-14  -1.70000000000000E+01  -1.70000000000000E+01   0.00000000000000E+00   5.50842740491196E-08
     -5.01776382935279E-15  -2.36652585202324E-07  -1.81568316170969E-07  -1.23954368848363E-13
      3.17189712419764E-09
      8.00000000000000E-01   8.00000000000000E-01   0.00000000000000E+00  -2.42365180719460E-13   5.38162779532048E-09
     -8.66296369304651E-13   5.38051913377046E-09   1.71169177248374E-13   0.00000000000000E+00   0.00000000000000E+00
      0.00000000000000E+00  -8.91435401809397E-13  -1.95097306456550E-16   1.75173470804837E-07   1.75172579174338E-07
     -4.72170722133415E-14  -1.70000000000000E+01  -1.70000000000000E+01   0.00000000000000E+00   5.22631988225673E-08
     -5.01769797325615E-15  -2.32816292112977E-07  -1.80553098308108E-07  -1.23952105035033E-13
      3.23516768725233E-09
      8.00000000000000E-01   8.00000000000000E-01   0.00000000000000E+00  -2.26305919660216E-13   4.99138189842957E-09
     -8.04894000191765E-13   4.99035069850971E-09   1.71165289153097E-13   0.00000000000000E+00   0.00000000000000E+00
      0.00000000000000E+00  -8.17766944463004E-13  -1.95083902601732E-16   1.74142563482552E-07   1.74141745520523E-07
     -4.72163619514256E-14  -1.70000000000000E+01  -1.70000000000000E+01   0.00000000000000E+00   4.82076390361120E-08
     -5.01760552760534E-15  -2.27339730237540E-07  -1.79132096219033E-07  -1.23948927201671E-13
      3.33007353183438E-09
      8.00000000000000E-01   8.00000000000000E-01   0.00000000000000E+00  -2.03668546616729E-13   4.45768108257991E-09
     -7.20713009929964E-13   4.45675670102336E-09   1.71160030818298E-13   0.00000000000000E+00   0.00000000000000E+00
      0.00000000000000E+00  -7.10089948921116E-13  -1.95066698010988E-16   1.72757965033136E-07   1.72757254748121E-07
     -4.72154078782077E-14  -1.70000000000000E+01  -1.70000000000000E+01   0.00000000000000E+00   4.25423295088284E-08
     -5.01748031352123E-15  -2.19756335940492E-07  -1.77214011449144E-07  -1.23944622940090E-13
      3.47243229870744E-09
      8.00000000000000E-01   8.00000000000000E-01   0.00000000000000E+00  -1.70889398664465E-13   3.76154003865174E-09
     -6.10380889803394E-13   3.76075876836327E-09   1.71153303688567E-13   0.00000000000000E+00   0.00000000000000E+00
      0.00000000000000E+00  -5.79262360161345E-13  -1.95046659464009E-16   1.71005091565021E-07   1.71004512107614E-07
     -4.72141940911368E-14  -1.70000000000000E+01  -1.70000000000000E+01   0.00000000000000E+00   3.50148468969877E-08
     -5.01731992735292E-15  -2.09780112755645E-07  -1.74765270875977E-07  -1.23939109597430E-13
      3.68597044901704E-09
      8.00000000000000E-01   8.00000000000000E-01   0.00000000000000E+00  -1.31806406723674E-13   2.91606851619125E-09
     -4.75217370028840E-13   2.91546149241450E-09   1.71145401385590E-13   0.00000000000000E+00   0.00000000000000E+00
      0.00000000000000E+00  -4.20723626100929E-13  -1.95027447607653E-16   1.68977983473966E-07   1.68977562555312E-07
     -4.72127672648135E-14  -1.70000000000000E+01  -1.70000000000000E+01   0.00000000000000E+00   2.58430548365000E-08
     -5.01713155426984E-15  -1.97736073867095E-07  -1.71893024047726E-07  -1.23932634120776E-13
      4.00627767448143E-09
      8.00000000000000E-01   8.00000000000000E-01   0.00000000000000E+00  -8.92305621128412E-14   1.99270727082170E-09
     -3.25600156772457E-13   1.99229244010282E-09   1.71137229763590E-13   0.00000000000000E+00   0.00000000000000E+00
      0.00000000000000E+00  -2.57365837547181E-13  -1.95017422455427E-16   1.66928509231043E-07   1.66928251670188E-07
     -4.72112663581111E-14  -1.70000000000000E+01  -1.70000000000000E+01   0.00000000000000E+00   1.61755868067677E-08
     -5.01693750242411E-15  -1.85096125900122E-07  -1.68920544110291E-07  -1.23925963405479E-13
      4.48673851267802E-09
      8.00000000000000E-01   8.00000000000000E-01   0.00000000000000E+00  -4.97545082803866E-14   1.12856675180214E-09
     -1.83382906877487E-13   1.12833361438698E-09   1.71130163690450E-13   0.00000000000000E+00   0.00000000000000E+00
      0.00000000000000E+00  -1.26785236519232E-13  -1.95031277118666E-16   1.65207154533343E-07   1.65207027553075E-07
     -4.72099046895698E-14  -1.70000000000000E+01  -1.70000000000000E+01   0.00000000000000E+00   8.05557736835311E-09
     -5.01677154844173E-15  -1.74390933519043E-07  -1.66335361167462E-07  -1.23920259000881E-13
      5.20742976997291E-09
      8.00000000000000E-01   8.00000000000000E-01   0.00000000000000E+00  -2.08702552356405E-14   4.79542275998773E-10
     -7.59261766789889E-14   4.79445479566859E-10   1.71125280829556E-13   0.00000000000000E+00   0.00000000000000E+00
      0.00000000000000E+00  -4.91542486871223E-14  -1.95089335381146E-16   1.64047215988390E-07   1.64047166639052E-07
     -4.72088825842785E-14  -1.70000000000000E+01  -1.70000000000000E+01   0.00000000000000E+00   3.07889477910859E-09
     -5.01665918991813E-15  -1.67605501881069E-07  -1.64526612118619E-07  -1.23916398245278E-13
      6.28846665591524E-09
      8.00000000000000E-01   8.00000000000000E-01   0.00000000000000E+00  -5.52291919999950E-15   1.25546209657278E-10
     -1.87654087218087E-14   1.25521921329356E-10   1.71122669238986E-13   0.00000000000000E+00   0.00000000000000E+00