DF-ISE text

Info {
  version   = 1.0
  type      = xyplot
  datasets  = [
    "time"
    "Ntop OuterVoltage" "Ntop InnerVoltage" "Ntop QuasiFermiPotential" "Ntop DisplacementCurrent" "Ntop eCurrent"
    "Ntop hCurrent" "Ntop TotalCurrent" "Ntop Charge" "Ptop OuterVoltage" "Ptop InnerVoltage"
    "Ptop QuasiFermiPotential" "Ptop DisplacementCurrent" "Ptop eCurrent" "Ptop hCurrent" "Ptop TotalCurrent"
    "Ptop Charge" "Pbot OuterVoltage" "Pbot InnerVoltage" "Pbot QuasiFermiPotential" "Pbot DisplacementCurrent"
    "Pbot eCurrent" "Pbot hCurrent" "Pbot TotalCurrent" "Pbot Charge" ]
  functions = [
    Time
    OuterVoltage InnerVoltage QuasiFermiPotential DisplacementCurrent eCurrent
    hCurrent TotalCurrent Charge OuterVoltage InnerVoltage
    QuasiFermiPotential DisplacementCurrent eCurrent hCurrent TotalCurrent
    Charge OuterVoltage InnerVoltage QuasiFermiPotential DisplacementCurrent
    eCurrent hCurrent TotalCurrent Charge ]
}

Data {
      5.00000000000000E-13
      8.00000000000000E-01   8.00000000000000E-01   0.00000000000000E+00   2.11749863694126E-15   7.01094261293563E-12
     -6.61848748648344E-12   3.94572625089137E-13   1.71121639905493E-13   0.00000000000000E+00   0.00000000000000E+00
      0.00000000000000E+00  -1.13933688076998E-13  -1.96738758269394E-16   1.63162906716553E-07   1.63162792586126E-07
     -4.72080767803625E-14  -1.70000000000000E+01  -1.70000000000000E+01   0.00000000000000E+00  -3.29395341638238E-13
      1.31996785113852E-11  -1.63176057441921E-07  -1.63163187158751E-07  -1.23913563125130E-13
      1.25000000000000E-12
      8.00000000000000E-01   8.00000000000000E-01   0.00000000000000E+00   1.07329886615526E-13   3.22681774292393E-11
     -3.05397410113215E-11   1.83576630453331E-12   1.71121639905965E-13   0.00000000000000E+00   0.00000000000000E+00
      0.00000000000000E+00  -8.06894947168158E-14  -1.96738758268084E-16   1.63163555403754E-07   1.63163474517520E-07
     -4.72080767800183E-14  -1.70000000000000E+01  -1.70000000000000E+01   0.00000000000000E+00  -1.94336863388962E-12
      6.09120831048766E-11  -1.63224278998296E-07  -1.63165310283825E-07  -1.23913563125946E-13
      2.37500000000000E-12
      8.00000000000000E-01   8.00000000000000E-01   0.00000000000000E+00   8.17223424457947E-13   2.70682674839918E-10
     -2.52688882625778E-10   1.88110156385973E-11   1.71121639912915E-13   0.00000000000000E+00   0.00000000000000E+00
      0.00000000000000E+00   6.39070743959560E-13  -1.96738758252862E-16   1.63171087561645E-07   1.63171726435651E-07
     -4.72080767748380E-14  -1.70000000000000E+01  -1.70000000000000E+01   0.00000000000000E+00  -2.11461242497347E-11
      5.03867085724552E-10  -1.63673258412765E-07  -1.63190537451290E-07  -1.23913563138077E-13
      4.06250000000000E-12
      8.00000000000000E-01   8.00000000000000E-01   0.00000000000000E+00   1.23790721265889E-11   4.21422589834627E-09
     -3.83334893973524E-09   3.93256030737623E-10   1.71121640119549E-13   0.00000000000000E+00   0.00000000000000E+00
      0.00000000000000E+00   8.84499088835156E-12  -1.96738757896018E-16   1.63347488450502E-07   1.63356333244652E-07
     -4.72080766179106E-14  -1.70000000000000E+01  -1.70000000000000E+01   0.00000000000000E+00  -4.46913712832859E-10
      7.63978148759962E-09  -1.70942457050156E-07  -1.63749589275389E-07  -1.23913563501638E-13
      6.59375000000000E-12
      8.00000000000000E-01   8.00000000000000E-01   0.00000000000000E+00   2.47842357950212E-10   8.79895416030789E-08
     -7.67145217532603E-08   1.15228622077688E-08   1.71121649027496E-13   0.00000000000000E+00   0.00000000000000E+00
      0.00000000000000E+00   1.78016981188842E-10  -1.96738746992753E-16   1.68730559496722E-07   1.68908576281173E-07
     -4.72080697422614E-14  -1.70000000000000E+01  -1.70000000000000E+01   0.00000000000000E+00  -1.31580094002162E-08
      1.52755480291111E-07  -3.20028909379835E-07  -1.80431438488941E-07  -1.23913579285235E-13
      1.03906250000000E-11
      8.00000000000000E-01   8.00000000000000E-01   0.00000000000000E+00   2.08086419199468E-09   7.92833797527408E-07
     -6.38512818990867E-07   1.56401842728536E-07   1.71121840275607E-13   0.00000000000000E+00   0.00000000000000E+00
      0.00000000000000E+00   1.45984505872988E-09  -1.96738604050023E-16   2.39198880815455E-07   2.40658725677446E-07
     -4.72079224640181E-14  -1.70000000000000E+01  -1.70000000000000E+01   0.00000000000000E+00  -1.78233966803555E-07
      1.26924293123141E-06  -1.48806953283384E-06  -3.97060568405982E-07  -1.23913917811589E-13
      1.60859375000000E-11
      8.00000000000000E-01   8.00000000000000E-01   0.00000000000000E+00   1.21861364609725E-09   7.28065355070724E-07
     -3.41681859792051E-07   3.87602108924770E-07   1.71122859783644E-13   0.00000000000000E+00   0.00000000000000E+00
      0.00000000000000E+00   6.19638521714177E-10  -1.96738397167971E-16   3.40675775845945E-07   3.41295414170921E-07
     -4.72071793121356E-14  -1.70000000000000E+01  -1.70000000000000E+01   0.00000000000000E+00  -4.30169995329719E-07
      6.68803775472171E-07  -9.67531303238139E-07  -7.28897523095687E-07  -1.23915680471508E-13
      2.46289062500000E-11
      8.00000000000000E-01   8.00000000000000E-01   0.00000000000000E+00   1.40207379575523E-10   5.14439913572493E-07
     -8.53407064234974E-09   5.06046050309719E-07   1.71125407558143E-13   0.00000000000000E+00   0.00000000000000E+00
      0.00000000000000E+00  -1.68044797874432E-10  -1.96738356729392E-16   3.59724703443312E-07   3.59556658448699E-07
     -4.72055520205169E-14  -1.70000000000000E+01  -1.70000000000000E+01   0.00000000000000E+00  -5.29424844765981E-07
      1.23928204889255E-09  -3.37417146041329E-07  -8.65602708758417E-07  -1.23919855537627E-13
      3.74433593750000E-11
      8.00000000000000E-01   8.00000000000000E-01   0.00000000000000E+00   9.08406005849153E-11   5.46997198966963E-07
     -7.19399202448586E-09   5.39894047543062E-07   1.71129857253917E-13   0.00000000000000E+00   0.00000000000000E+00
      0.00000000000000E+00  -1.17642282425691E-10  -1.96738423063012E-16   3.25908364448780E-07   3.25790721969616E-07
     -4.72032733687432E-14  -1.70000000000000E+01  -1.70000000000000E+01   0.00000000000000E+00  -5.20425837179254E-07
     -5.01671658760576E-15  -3.45258927316704E-07  -8.65684769512675E-07  -1.23926583885174E-13
      5.66650390625000E-11
      8.00000000000000E-01   8.00000000000000E-01   0.00000000000000E+00   5.67255017340923E-11   5.77437896184496E-07
     -6.22889729962519E-09   5.71265724386605E-07   1.71136973321698E-13   0.00000000000000E+00   0.00000000000000E+00
      0.00000000000000E+00  -8.32069779155228E-11  -1.96738493330700E-16   2.89537921213279E-07   2.89454714038625E-07
     -4.72005424685935E-14  -1.70000000000000E+01  -1.70000000000000E+01   0.00000000000000E+00  -5.04068243526968E-07
     -5.01716744996513E-15  -3.56652189881095E-07  -8.60720438425230E-07  -1.23936430853105E-13
      8.54975585937500E-11
      8.00000000000000E-01   8.00000000000000E-01   0.00000000000000E+00   3.03730372530625E-11   6.02472068796541E-07
     -5.01699680502268E-09   5.97485445028772E-07   1.71148132130649E-13   0.00000000000000E+00   0.00000000000000E+00
      0.00000000000000E+00  -5.60338672395261E-11  -1.96738562528054E-16   2.51890350242134E-07   2.51834316178156E-07
     -4.71975288897960E-14  -1.70000000000000E+01  -1.70000000000000E+01   0.00000000000000E+00  -4.79070021929382E-07
     -5.01762285782493E-15  -3.70249734259923E-07  -8.49319761206928E-07  -1.23950603240852E-13
      1.28746337890625E-10
      8.00000000000000E-01   8.00000000000000E-01   0.00000000000000E+00   1.18949307042089E-11   6.18104205315113E-07
     -3.62479478691276E-09   6.14491305458904E-07   1.71165193634198E-13   0.00000000000000E+00   0.00000000000000E+00
      0.00000000000000E+00  -3.64556328803348E-11  -1.96738619607360E-16   2.14398435085663E-07   2.14361979256044E-07
     -4.71946401413814E-14  -1.70000000000000E+01  -1.70000000000000E+01   0.00000000000000E+00  -4.43813779150633E-07
     -5.01822293850510E-15  -3.85039500546093E-07  -8.28853284714949E-07  -1.23970553492816E-13
      1.93619506835937E-10
      8.00000000000000E-01   8.00000000000000E-01   0.00000000000000E+00   6.35449575712370E-13   6.20933249301734E-07
     -2.22422794206896E-09   6.18709656809240E-07   1.71190499810014E-13   0.00000000000000E+00   0.00000000000000E+00
      0.00000000000000E+00  -2.45976143058997E-11  -1.96738645563710E-16   1.77346921255551E-07   1.77322323444507E-07
     -4.71926838481385E-14  -1.70000000000000E+01  -1.70000000000000E+01   0.00000000000000E+00  -3.97260242317923E-07
     -5.01902179167069E-15  -3.98771732916804E-07  -7.96031980253748E-07  -1.23997815961876E-13
      2.42274383544922E-10
      8.00000000000000E-01   8.00000000000000E-01   0.00000000000000E+00  -2.68419820566925E-12   6.16383735583646E-07
     -1.54866883378773E-09   6.14832382551653E-07   1.71208949666225E-13   0.00000000000000E+00   0.00000000000000E+00
      0.00000000000000E+00  -2.13852942738250E-11  -1.96738643284284E-16   1.56143067021856E-07   1.56121681530843E-07
     -4.71925628791374E-14  -1.70000000000000E+01  -1.70000000000000E+01   0.00000000000000E+00  -3.66334326368169E-07
     -5.01956267110308E-15  -4.04619732694764E-07  -7.70954064082496E-07  -1.24016386787087E-13
      3.15256698608398E-10
      8.00000000000000E-01   8.00000000000000E-01   0.00000000000000E+00  -4.95399402763858E-12   6.06161794706157E-07
     -9.01716040326220E-10   6.05255124671804E-07   1.71235653675416E-13   0.00000000000000E+00   0.00000000000000E+00
      0.00000000000000E+00  -1.94609927958632E-11  -1.96738653755460E-16   1.27874907239083E-07   1.27855446049548E-07
     -4.71940897983071E-14  -1.70000000000000E+01  -1.70000000000000E+01   0.00000000000000E+00  -3.23931909673213E-07
     -5.02029567604351E-15  -4.09178656027843E-07  -7.33110570721351E-07  -1.24041563877110E-13
      3.69993434906006E-10
      8.00000000000000E-01   8.00000000000000E-01   0.00000000000000E+00  -5.80112849568543E-12   5.97314482122026E-07
     -6.06483978402645E-10   5.96702197015128E-07   1.71254948029023E-13   0.00000000000000E+00   0.00000000000000E+00
      0.00000000000000E+00  -1.87606579845840E-11  -1.96738702306251E-16   1.07983293807123E-07   1.07964532952400E-07
     -4.71964698560084E-14  -1.70000000000000E+01  -1.70000000000000E+01   0.00000000000000E+00  -2.94202148777451E-07
     -5.02078818341760E-15  -4.10464576169288E-07  -7.04666729967528E-07  -1.24058478173014E-13
      4.11045987129211E-10
      8.00000000000000E-01   8.00000000000000E-01   0.00000000000000E+00  -6.36120466826682E-12   5.90264021730888E-07
     -4.53004720553343E-10   5.89804655805666E-07   1.71269026668559E-13   0.00000000000000E+00   0.00000000000000E+00
      0.00000000000000E+00  -1.81885703250180E-11  -1.96738775868228E-16   9.35663474701205E-08   9.35481587030567E-08
     -4.71989137661447E-14  -1.70000000000000E+01  -1.70000000000000E+01   0.00000000000000E+00  -2.72664283418291E-07
     -5.02112700272113E-15  -4.10688526069304E-07  -6.83352814508721E-07  -1.24070112902416E-13
      4.72624815464020E-10
      8.00000000000000E-01   8.00000000000000E-01   0.00000000000000E+00  -7.41961128951142E-12   5.78758187746429E-07
     -2.94574055130135E-10   5.78456194080009E-07   1.71289520538008E-13   0.00000000000000E+00   0.00000000000000E+00
      0.00000000000000E+00  -1.68717749237333E-11  -1.96738960270727E-16   7.30423115930439E-08   7.30254396213813E-08
     -4.72035878545828E-14  -1.70000000000000E+01  -1.70000000000000E+01   0.00000000000000E+00  -2.41217057804826E-07
     -5.02158773338720E-15  -4.10264570874976E-07  -6.51481633701390E-07  -1.24085932683425E-13
      5.18808936715126E-10
      8.00000000000000E-01   8.00000000000000E-01   0.00000000000000E+00  -8.53099993594690E-12   5.69020175574560E-07
     -2.15540062515596E-10   5.68796104512108E-07   1.71304379251069E-13   0.00000000000000E+00   0.00000000000000E+00
      0.00000000000000E+00  -1.53563927904501E-11  -1.96739161447905E-16   5.89194838644246E-08   5.89041272748949E-08
     -4.72078393080236E-14  -1.70000000000000E+01  -1.70000000000000E+01   0.00000000000000E+00  -2.18162986658798E-07
     -5.02189667517486E-15  -4.09537240106307E-07  -6.27700231787002E-07  -1.24096539943045E-13
      5.88085118591785E-10
      8.00000000000000E-01   8.00000000000000E-01   0.00000000000000E+00  -1.08732403008844E-11   5.51580029716139E-07
     -1.36974500556173E-10   5.51432181975282E-07   1.71325736783901E-13   0.00000000000000E+00   0.00000000000000E+00
      0.00000000000000E+00  -1.20441720290057E-11  -1.96739561753994E-16   4.09034237672415E-08   4.08913793984729E-08
     -4.72152597462580E-14  -1.70000000000000E+01  -1.70000000000000E+01   0.00000000000000E+00  -1.84266851976122E-07
     -5.02230261656132E-15  -4.08056704375330E-07  -5.92323561373754E-07  -1.24110477037643E-13
      6.91999391406774E-10
      8.00000000000000E-01   8.00000000000000E-01   0.00000000000000E+00  -1.57451219463258E-11   5.16226164623390E-07
     -7.24656127110971E-11   5.16137953888732E-07   1.71355144631399E-13   0.00000000000000E+00   0.00000000000000E+00
      0.00000000000000E+00  -4.90828010462543E-12  -1.96740311486142E-16   2.41701322935610E-08   2.41652238167160E-08
     -4.72280913594000E-14  -1.70000000000000E+01  -1.70000000000000E+01   0.00000000000000E+00  -1.34937859617368E-07
     -5.02278545605727E-15  -4.05365313065295E-07  -5.40303177705448E-07  -1.24127053272000E-13
      7.69935096018016E-10
      8.00000000000000E-01   8.00000000000000E-01   0.00000000000000E+00  -1.99189879464931E-11   4.80861903785629E-07
     -4.75569690381256E-11   4.80794427828644E-07   1.71374539122496E-13   0.00000000000000E+00   0.00000000000000E+00
      0.00000000000000E+00   1.48255574970972E-12  -1.96740842033180E-16   2.17666944226121E-08   2.17681767816210E-08
     -4.72383599315611E-14  -1.70000000000000E+01  -1.70000000000000E+01   0.00000000000000E+00  -9.93810728156495E-08
     -5.02305130913715E-15  -4.03181526771563E-07  -5.02562604610264E-07  -1.24136179190935E-13
      8.86838652934879E-10
      8.00000000000000E-01   8.00000000000000E-01   0.00000000000000E+00  -2.52025091742713E-11   4.13899247780145E-07
     -2.75178682178330E-11   4.13846527402753E-07   1.71397958361058E-13   0.00000000000000E+00   0.00000000000000E+00
      0.00000000000000E+00   1.05017176222354E-11  -1.96740762518846E-16   3.54868413159410E-08   3.54973428368225E-08
     -4.72531032522327E-14  -1.70000000000000E+01  -1.70000000000000E+01   0.00000000000000E+00  -4.94728805372538E-08
     -5.02330412265240E-15  -3.99870984679016E-07  -4.49343870239574E-07  -1.24144855108825E-13
      9.74516320622526E-10
      8.00000000000000E-01   8.00000000000000E-01   0.00000000000000E+00  -2.72958555648523E-11   3.55824778824389E-07
     -1.97706568532297E-11   3.55777712311971E-07   1.71410277708632E-13   0.00000000000000E+00   0.00000000000000E+00
      0.00000000000000E+00   1.53736015089156E-11  -1.96738821075251E-16   5.73274725146687E-08   5.73428459194388E-08
     -4.72625799258009E-14  -1.70000000000000E+01  -1.70000000000000E+01   0.00000000000000E+00  -1.56882525274092E-08
     -5.02338704739310E-15  -3.97432300680615E-07  -4.13120558231411E-07  -1.24147697782832E-13
      1.10603282215400E-09
      8.00000000000000E-01   8.00000000000000E-01   0.00000000000000E+00  -2.65145347438812E-11   2.66617310467685E-07
     -1.32796218665109E-11   2.66577516311075E-07   1.71419566542391E-13   0.00000000000000E+00   0.00000000000000E+00
      0.00000000000000E+00   1.81230372613659E-11  -1.96728024745660E-16   9.98788085614842E-08   9.98969314020176E-08
     -4.72726956222031E-14  -1.70000000000000E+01  -1.70000000000000E+01   0.00000000000000E+00   2.74270439621552E-08
     -5.02336322505616E-15  -3.93901486651884E-07  -3.66474447713092E-07  -1.24146870920189E-13
      1.20467019830260E-09
      8.00000000000000E-01   8.00000000000000E-01   0.00000000000000E+00  -2.33438679099091E-11   2.05154734171605E-07
     -1.05380007854945E-11   2.05120852302910E-07   1.71419549463247E-13   0.00000000000000E+00   0.00000000000000E+00
      0.00000000000000E+00   1.68953908186099E-11  -1.96708633564118E-16   1.32902287851260E-07   1.32919183045370E-07
     -4.72766831746043E-14  -1.70000000000000E+01  -1.70000000000000E+01   0.00000000000000E+00   5.32927996426528E-08
     -5.02324683252085E-15  -3.91332829967686E-07  -3.38040035348280E-07  -1.24142866288643E-13
      1.35262626252550E-09
      8.00000000000000E-01   8.00000000000000E-01   0.00000000000000E+00  -1.67785070277796E-11   1.31322512553050E-07
     -7.94890709036745E-12   1.31297785138932E-07   1.71410183136759E-13   0.00000000000000E+00   0.00000000000000E+00
      0.00000000000000E+00   1.21197561644581E-11  -1.96648427026260E-16   1.73894354801342E-07   1.73906474360858E-07
     -4.72774116474239E-14  -1.70000000000000E+01  -1.70000000000000E+01   0.00000000000000E+00   8.22278945221522E-08
     -5.02295325231129E-15  -3.87432148998989E-07  -3.05204259499791E-07  -1.24132771489335E-13
      1.46359331069268E-09
      8.00000000000000E-01   8.00000000000000E-01   0.00000000000000E+00  -1.19275605014414E-11   9.19711391841608E-08
     -6.67142562701453E-12   9.19525401980323E-08   1.71397536836506E-13   0.00000000000000E+00   0.00000000000000E+00
      0.00000000000000E+00   7.93689777026589E-12  -1.96571611823775E-16   1.94976176424230E-07   1.94984113125429E-07
     -4.72747502149500E-14  -1.70000000000000E+01  -1.70000000000000E+01   0.00000000000000E+00   9.73187933114945E-08
     -5.02266281342463E-15  -3.84255441612293E-07  -2.86936653323461E-07  -1.24122786621556E-13
      1.63004388294345E-09
      8.00000000000000E-01   8.00000000000000E-01   0.00000000000000E+00  -6.45554867544397E-12   5.45671235167592E-08
     -5.28803204344124E-12   5.45553799360403E-08   1.71373109889913E-13   0.00000000000000E+00   0.00000000000000E+00
      0.00000000000000E+00   2.89090266606582E-12  -1.96402634730066E-16   2.11771660242925E-07   2.11774550949189E-07
     -4.72678112136291E-14  -1.70000000000000E+01  -1.70000000000000E+01   0.00000000000000E+00   1.12130432746940E-07
     -5.02215410275141E-15  -3.78460358610015E-07  -2.66329930885229E-07  -1.24105298676283E-13
      1.75488181213153E-09
      8.00000000000000E-01   8.00000000000000E-01   0.00000000000000E+00  -3.90487035063253E-12   3.87111660691536E-08
     -4.51182787284154E-12   3.87027493709301E-08   1.71352389933497E-13   0.00000000000000E+00   0.00000000000000E+00
      0.00000000000000E+00   4.58535999851020E-13  -1.96242509559040E-16   2.15595275440880E-07   2.15595733780638E-07
     -4.72615072590934E-14  -1.70000000000000E+01  -1.70000000000000E+01   0.00000000000000E+00   1.18536725469151E-07
     -5.02173475542050E-15  -3.72835203598983E-07  -2.54298483151567E-07  -1.24090882674405E-13
      1.94213870591364E-09
      8.00000000000000E-01   8.00000000000000E-01   0.00000000000000E+00  -1.86735378567672E-12   2.55675727615886E-08
     -3.59752119029547E-12   2.55621078866126E-08   1.71320258354642E-13   0.00000000000000E+00   0.00000000000000E+00
      0.00000000000000E+00  -1.43490002907762E-12  -1.95982773520773E-16   2.13568494117931E-07   2.13567059021920E-07
     -4.72519827818459E-14  -1.70000000000000E+01  -1.70000000000000E+01   0.00000000000000E+00   1.22375183748877E-07
     -5.02107716181031E-15  -3.61504345636333E-07  -2.39129166908533E-07  -1.24068275572796E-13
      2.08258137625022E-09
      8.00000000000000E-01   8.00000000000000E-01   0.00000000000000E+00  -1.18280379159787E-12   2.02299218498546E-08
     -3.05242485048224E-12   2.02256866212125E-08   1.71296517353305E-13   0.00000000000000E+00   0.00000000000000E+00
      0.00000000000000E+00  -1.96461375749370E-12  -1.95795776022321E-16   2.08955653013058E-07   2.08953688203505E-07
     -4.72453696710252E-14  -1.70000000000000E+01  -1.70000000000000E+01   0.00000000000000E+00   1.21265420502313E-07
     -5.02057896302391E-15  -3.50444790306451E-07  -2.29179374824717E-07  -1.24051147682280E-13
      2.29324538175510E-09
      8.00000000000000E-01   8.00000000000000E-01   0.00000000000000E+00  -7.19758631781370E-13   1.51895480076199E-08
     -2.39270829824433E-12   1.51864355406899E-08   1.71263113370434E-13   0.00000000000000E+00   0.00000000000000E+00
      0.00000000000000E+00  -2.09714225057912E-12  -1.95558429578949E-16   2.00716088951512E-07   2.00713991613703E-07
     -4.72368098468955E-14  -1.70000000000000E+01  -1.70000000000000E+01   0.00000000000000E+00   1.14085936731048E-07
     -5.01985632832748E-15  -3.29986358865584E-07  -2.15900427154392E-07  -1.24026303523538E-13
      2.45124338588376E-09
      8.00000000000000E-01   8.00000000000000E-01   0.00000000000000E+00  -5.63112269420974E-13   1.25702617825211E-08
     -1.99567315686411E-12   1.25677029970948E-08   1.71240477385620E-13   0.00000000000000E+00   0.00000000000000E+00
      0.00000000000000E+00  -1.94816023227691E-12  -1.95419774854981E-16   1.94612670721026E-07   1.94610722365374E-07
     -4.72315097391084E-14  -1.70000000000000E+01  -1.70000000000000E+01   0.00000000000000E+00   1.05147918653496E-07
     -5.01935207652589E-15  -3.12326338996613E-07  -2.07178425362469E-07  -1.24008967646512E-13
      2.56974188898025E-09
      8.00000000000000E-01   8.00000000000000E-01   0.00000000000000E+00  -4.85823127979695E-13   1.09495004292280E-08
     -1.74187287985751E-12   1.09472727332202E-08   1.71225114516639E-13   0.00000000000000E+00   0.00000000000000E+00
      0.00000000000000E+00  -1.78290755472341E-12  -1.95336309410975E-16   1.90397190856471E-07   1.90395407753580E-07
     -4.72281306318735E-14  -1.70000000000000E+01  -1.70000000000000E+01   0.00000000000000E+00   9.70344943135110E-08
     -5.01900349366092E-15  -2.98377169781308E-07  -2.01342680486800E-07  -1.23996983884766E-13
      2.74748964362499E-09
      8.00000000000000E-01   8.00000000000000E-01   0.00000000000000E+00  -3.95770430881530E-13   8.90334548874810E-09
     -1.41955022209875E-12   8.90153016809512E-09   1.71204830290221E-13   0.00000000000000E+00   0.00000000000000E+00
      0.00000000000000E+00  -1.50634689322143E-12  -1.95237848349343E-16   1.84824406263591E-07   1.84822899721460E-07
     -4.72239114866034E-14  -1.70000000000000E+01  -1.70000000000000E+01   0.00000000000000E+00   8.36577132955550E-08
     -5.01853617719646E-15  -2.77382138166574E-07  -1.93724429889555E-07  -1.23980918803617E-13
      3.01411127559210E-09
      8.00000000000000E-01   8.00000000000000E-01   0.00000000000000E+00  -2.92917784731357E-13   6.50395254688265E-09
     -1.04234581836336E-12   6.50261728327955E-09   1.71180498855063E-13   0.00000000000000E+00   0.00000000000000E+00
      0.00000000000000E+00  -1.10355610735010E-12  -1.95135386684889E-16   1.78204042197504E-07   1.78202938446261E-07
     -4.72191704794192E-14  -1.70000000000000E+01  -1.70000000000000E+01   0.00000000000000E+00   6.34171843064543E-08
     -5.01796628547920E-15  -2.48122735018029E-07  -1.84705555729541E-07  -1.23961328375643E-13
      3.06410283158594E-09
      8.00000000000000E-01   8.00000000000000E-01   0.00000000000000E+00  -2.29566504501044E-13   6.13029365830947E-09
     -9.83716972244164E-13   6.12908037483272E-09   1.71176710896069E-13   0.00000000000000E+00   0.00000000000000E+00
      0.00000000000000E+00  -1.03264487120739E-12  -1.95121023107346E-16   1.77185398080719E-07   1.77184365240727E-07
     -4.72184623462505E-14  -1.70000000000000E+01  -1.70000000000000E+01   0.00000000000000E+00   5.98055626830548E-08
     -5.01787669148475E-15  -2.43119003280738E-07  -1.83313445615560E-07  -1.23958248549819E-13
      3.10159649858131E-09
      8.00000000000000E-01   8.00000000000000E-01   0.00000000000000E+00  -2.65140745942459E-13   5.86377300270803E-09
     -9.41885288458986E-13   5.86256597667363E-09   1.71174018534330E-13   0.00000000000000E+00   0.00000000000000E+00
      0.00000000000000E+00  -9.79929818916994E-13  -1.95111063370682E-16   1.76464055309207E-07   1.76463075184277E-07
     -4.72179627589456E-14  -1.70000000000000E+01  -1.70000000000000E+01   0.00000000000000E+00   5.71676950420414E-08
     -5.01781290220942E-15  -2.39493331185179E-07  -1.82325641160951E-07  -1.23956055775384E-13
      3.11565662370458E-09
      8.00000000000000E-01   8.00000000000000E-01   0.00000000000000E+00  -2.60359025734245E-13   5.76675214941604E-09
     -9.26654174867125E-13   5.76556513621544E-09   1.71173040911741E-13   0.00000000000000E+00   0.00000000000000E+00
      0.00000000000000E+00  -9.79003935024385E-13  -1.95107500120408E-16   1.76202712640505E-07   1.76201733441462E-07
     -4.72177820798194E-14  -1.70000000000000E+01  -1.70000000000000E+01   0.00000000000000E+00   5.61953349447502E-08
     -5.01778971857268E-15  -2.38162628504638E-07  -1.81967298577677E-07  -1.23955258831921E-13
      3.13674681138948E-09
      8.00000000000000E-01   8.00000000000000E-01   0.00000000000000E+00  -2.54579523779833E-13   5.62414083281994E-09
     -9.04259956987406E-13   5.62298199333917E-09   1.71171606510893E-13   0.00000000000000E+00   0.00000000000000E+00
      0.00000000000000E+00  -9.36985441664053E-13  -1.95102324597830E-16   1.75819794946542E-07   1.75818857765999E-07
     -4.72175176394538E-14  -1.70000000000000E+01  -1.70000000000000E+01   0.00000000000000E+00   5.47548784716030E-08
     -5.01775568359667E-15  -2.36196713213185E-07  -1.81441839759337E-07  -1.23954088871439E-13
      3.16838209291682E-09
      8.00000000000000E-01   8.00000000000000E-01   0.00000000000000E+00  -2.45527391578874E-13   5.41664418115111E-09
     -8.71661511084744E-13   5.41552699224845E-09   1.71169525604528E-13   0.00000000000000E+00   0.00000000000000E+00
      0.00000000000000E+00  -8.99392145865385E-13  -1.95094931229408E-16   1.75265569340740E-07   1.75264669753500E-07
     -4.72171353380763E-14  -1.70000000000000E+01  -1.70000000000000E+01   0.00000000000000E+00   5.26362870512328E-08
     -5.01770626995680E-15  -2.33316478779275E-07  -1.80680196745748E-07  -1.23952390266450E-13
      3.21583501520784E-09
      8.00000000000000E-01   8.00000000000000E-01   0.00000000000000E+00  -2.32508875513233E-13   5.11936237719982E-09
     -8.24915668508492E-13   5.11830495265580E-09   1.71166558569528E-13   0.00000000000000E+00   0.00000000000000E+00
      0.00000000000000E+00  -8.38491021348071E-13  -1.95084637857892E-16   1.74478027220643E-07   1.74477188534537E-07
     -4.72165927451480E-14  -1.70000000000000E+01  -1.70000000000000E+01   0.00000000000000E+00   4.95571593464363E-08
     -5.01763574118579E-15  -2.29152647815993E-07  -1.79595493487192E-07  -1.23949965824380E-13
      3.28701439864438E-09
      8.00000000000000E-01   8.00000000000000E-01   0.00000000000000E+00  -2.13637285206610E-13   4.70326377604284E-09
     -7.59374228558213E-13   4.70229076452908E-09   1.71162438965823E-13   0.00000000000000E+00   0.00000000000000E+00
      0.00000000000000E+00  -7.58951366352417E-13  -1.95070878771653E-16   1.73390222081150E-07   1.73389462934713E-07
     -4.72158436179072E-14  -1.70000000000000E+01  -1.70000000000000E+01   0.00000000000000E+00   4.51710463854587E-08
     -5.01753769168238E-15  -2.23262795067163E-07  -1.78091753699242E-07  -1.23946595347915E-13
      3.39378347379917E-09
      8.00000000000000E-01   8.00000000000000E-01   0.00000000000000E+00  -1.89413030798651E-13   4.14107274088366E-09
     -6.70530606510940E-13   4.14021279724635E-09   1.71156948707726E-13   0.00000000000000E+00   0.00000000000000E+00
      0.00000000000000E+00  -6.49488911757164E-13  -1.95053683276129E-16   1.71951828158387E-07   1.71951178474422E-07
     -4.72148509884455E-14  -1.70000000000000E+01  -1.70000000000000E+01   0.00000000000000E+00   3.91352455893432E-08
     -5.01740685298899E-15  -2.15226631843604E-07  -1.76091391271668E-07  -1.23942097719280E-13
      3.55393708653137E-09
      8.00000000000000E-01   8.00000000000000E-01   0.00000000000000E+00  -1.54262876354627E-13   3.42100968439099E-09
     -5.56049526457772E-13   3.42029937198818E-09   1.71150079614896E-13   0.00000000000000E+00   0.00000000000000E+00
      0.00000000000000E+00  -5.13515476457426E-13  -1.95034645816921E-16   1.70173334962295E-07   1.70172821251784E-07
     -4.72136129632852E-14  -1.70000000000000E+01  -1.70000000000000E+01   0.00000000000000E+00   3.13102064804914E-08
     -5.01724304316464E-15  -2.04903322087020E-07  -1.73593120623772E-07  -1.23936466651611E-13
      3.79416750562967E-09
      8.00000000000000E-01   8.00000000000000E-01   0.00000000000000E+00  -1.15840409975328E-13   2.56981073104486E-09
     -4.19334220634252E-13   2.56927555641425E-09   1.71142273126390E-13   0.00000000000000E+00   0.00000000000000E+00
      0.00000000000000E+00  -3.57936793929743E-13  -1.95018542547429E-16   1.68187100310444E-07   1.68186742178632E-07
     -4.72121977849473E-14  -1.70000000000000E+01  -1.70000000000000E+01   0.00000000000000E+00   2.21457002622031E-08
     -5.01705711956577E-15  -1.92901712980192E-07  -1.70756017735046E-07  -1.23930075341442E-13
      4.15451313427711E-09
      8.00000000000000E-01   8.00000000000000E-01   0.00000000000000E+00  -7.46907604499309E-14   1.67599329627649E-09
     -2.73679630865270E-13   1.67564492588517E-09   1.71134568675816E-13   0.00000000000000E+00   0.00000000000000E+00
      0.00000000000000E+00  -2.06863024849493E-13  -1.95015334372143E-16   1.66274198838713E-07   1.66273991780673E-07
     -4.72107639120264E-14  -1.70000000000000E+01  -1.70000000000000E+01   0.00000000000000E+00   1.30563701230994E-08
     -5.01687470598277E-15  -1.81006001812783E-07  -1.67949636706558E-07  -1.23923804763789E-13
      4.69503157724828E-09
      8.00000000000000E-01   8.00000000000000E-01   0.00000000000000E+00  -3.88068817709890E-14   8.84831438906784E-10
     -1.42960506341126E-13   8.84649671518672E-10   1.71128291990301E-13   0.00000000000000E+00   0.00000000000000E+00