DF-ISE text

Info {
  version   = 1.0
  type      = xyplot
  datasets  = [
    "time"
    "Ntop OuterVoltage" "Ntop InnerVoltage" "Ntop QuasiFermiPotential" "Ntop DisplacementCurrent" "Ntop eCurrent"
    "Ntop hCurrent" "Ntop TotalCurrent" "Ntop Charge" "Ptop OuterVoltage" "Ptop InnerVoltage"
    "Ptop QuasiFermiPotential" "Ptop DisplacementCurrent" "Ptop eCurrent" "Ptop hCurrent" "Ptop TotalCurrent"
    "Ptop Charge" "Pbot OuterVoltage" "Pbot InnerVoltage" "Pbot QuasiFermiPotential" "Pbot DisplacementCurrent"
    "Pbot eCurrent" "Pbot hCurrent" "Pbot TotalCurrent" "Pbot Charge" ]
  functions = [
    Time
    OuterVoltage InnerVoltage QuasiFermiPotential DisplacementCurrent eCurrent
    hCurrent TotalCurrent Charge OuterVoltage InnerVoltage
    QuasiFermiPotential DisplacementCurrent eCurrent hCurrent TotalCurrent
    Charge OuterVoltage InnerVoltage QuasiFermiPotential DisplacementCurrent
    eCurrent hCurrent TotalCurrent Charge ]
}

Data {
      5.00000000000000E-13
      8.00000000000000E-01   8.00000000000000E-01   0.00000000000000E+00   7.07820900068004E-15   1.15151959211932E-11
     -1.09965335247796E-11   5.25740605414229E-13   1.67014632698031E-13   0.00000000000000E+00   0.00000000000000E+00
      0.00000000000000E+00  -1.11920005773055E-13  -1.97161987554501E-16   6.33678090855630E-11   6.32556919178024E-11
     -7.08437734485948E-14  -1.20000000000000E+01  -1.20000000000000E+01   0.00000000000000E+00  -4.17154567561636E-13
      2.19352664825726E-11  -8.52995444382275E-11  -6.37814325232166E-11  -9.61708592494356E-14
      1.25000000000000E-12
      8.00000000000000E-01   8.00000000000000E-01   0.00000000000000E+00   1.27396132808372E-13   5.28895242085429E-11
     -5.07413450945501E-11   2.27557524680118E-12   1.67014632698578E-13   0.00000000000000E+00   0.00000000000000E+00
      0.00000000000000E+00  -5.01911523267551E-14  -1.97161987552565E-16   6.43279040678715E-11   6.42775157535572E-11
     -7.08437734480927E-14  -1.20000000000000E+01  -1.20000000000000E+01   0.00000000000000E+00  -2.50020212277297E-12
      1.01208726274714E-10  -1.65261615152299E-10  -6.65530910003584E-11  -9.61708592504840E-14
      2.37500000000000E-12
      8.00000000000000E-01   8.00000000000000E-01   0.00000000000000E+00   9.68991030075438E-13   4.41829868298837E-10
     -4.19838882826151E-10   2.29599765027620E-11   1.67014632706558E-13   0.00000000000000E+00   0.00000000000000E+00
      0.00000000000000E+00   9.15983648435049E-13  -1.97161987530046E-16   7.54917061268378E-11   7.64074926132853E-11
     -7.08437734404889E-14  -1.20000000000000E+01  -1.20000000000000E+01   0.00000000000000E+00  -2.71679309291745E-11
      8.37171960348130E-10  -9.09371498535003E-10  -9.93674691160472E-11  -9.61708592660683E-14
      4.06250000000000E-12
      8.00000000000000E-01   8.00000000000000E-01   0.00000000000000E+00   1.45998161044339E-11   6.83170182777035E-09
     -6.36905300678099E-09   4.77248637093789E-10   1.67014632942117E-13   0.00000000000000E+00   0.00000000000000E+00
      0.00000000000000E+00   1.31404309152584E-11  -1.97161987003845E-16   3.36080961020820E-10   3.49221194774091E-10
     -7.08437732090820E-14  -1.20000000000000E+01  -1.20000000000000E+01   0.00000000000000E+00  -5.74074052676012E-10
      1.26933889807075E-08  -1.29457847598994E-08  -8.26469831867875E-10  -9.61708597330345E-14
      6.59375000000000E-12
      8.00000000000000E-01   8.00000000000000E-01   0.00000000000000E+00   2.90754040600629E-10   1.41092091240569E-07
     -1.27460051275761E-07   1.39227940054089E-08   1.67014643022190E-13   0.00000000000000E+00   0.00000000000000E+00
      0.00000000000000E+00   2.66300576188845E-10  -1.97161970833660E-16   8.33404117148722E-09   8.60034155051410E-09
     -7.08437630146937E-14  -1.20000000000000E+01  -1.20000000000000E+01   0.00000000000000E+00  -1.69042740774457E-08
      2.53800992183474E-07  -2.59419853661951E-07  -2.25231355559230E-08  -9.61708800074960E-14
      1.03906250000000E-11
      8.00000000000000E-01   8.00000000000000E-01   0.00000000000000E+00   2.43290716839315E-09   1.24677809941031E-06
     -1.06087959016121E-06   1.88331416417494E-07   1.67014858141310E-13   0.00000000000000E+00   0.00000000000000E+00
      0.00000000000000E+00   2.20264567645290E-09  -1.97161757217380E-16   1.13836628711027E-07   1.16039274190318E-07
     -7.08435430715647E-14  -1.20000000000000E+01  -1.20000000000000E+01   0.00000000000000E+00  -2.29096133656287E-07
      2.10882850146074E-06  -2.18410305841226E-06  -3.04370690607812E-07  -9.61713150697444E-14
      1.60859375000000E-11
      8.00000000000000E-01   8.00000000000000E-01   0.00000000000000E+00   1.43059073842627E-09   1.03117917198526E-06
     -5.67699572249861E-07   4.64910190473828E-07   1.67015997768408E-13   0.00000000000000E+00   0.00000000000000E+00
      0.00000000000000E+00   9.84586307469211E-10  -1.97161437628423E-16   2.70914733573743E-07   2.71899319684051E-07
     -7.08424151123692E-14  -1.20000000000000E+01  -1.20000000000000E+01   0.00000000000000E+00  -5.53666865576354E-07
      1.11120765902767E-06  -1.29435030360920E-06  -7.36809510157877E-07  -9.61735826560383E-14
      2.46289062500000E-11
      8.00000000000000E-01   8.00000000000000E-01   0.00000000000000E+00   2.01766388446832E-10   6.25188831475551E-07
     -1.41818292218441E-08   6.11208768642153E-07   1.67018863719178E-13   0.00000000000000E+00   0.00000000000000E+00
      0.00000000000000E+00  -2.32856209639767E-10  -1.97161364176915E-16   3.05885256220250E-07   3.05652399813449E-07
     -7.08398987572839E-14  -1.20000000000000E+01  -1.20000000000000E+01   0.00000000000000E+00  -6.83532595010918E-07
      2.05905333314003E-09  -2.35387626777824E-07  -9.16861168455602E-07  -9.61789649618945E-14
      3.74433593750000E-11
      8.00000000000000E-01   8.00000000000000E-01   0.00000000000000E+00   1.47588651546009E-10   6.75715305176015E-07
     -1.19593013906686E-08   6.63903592436893E-07   1.67023986612894E-13   0.00000000000000E+00   0.00000000000000E+00
      0.00000000000000E+00  -1.79474883283410E-10  -1.97161460637832E-16   2.56783833720919E-07   2.56604358640475E-07
     -7.08363080794834E-14  -1.20000000000000E+01  -1.20000000000000E+01   0.00000000000000E+00  -6.76086889973717E-07
     -4.02204135914496E-15  -2.44421057081609E-07  -9.20507951077368E-07  -9.61876785334104E-14
      5.66650390625000E-11
      8.00000000000000E-01   8.00000000000000E-01   0.00000000000000E+00   1.03417798081326E-10   7.29807261541346E-07
     -1.03600930403769E-08   7.19550586299050E-07   1.67032479156465E-13   0.00000000000000E+00   0.00000000000000E+00
      0.00000000000000E+00  -1.34833030472062E-10  -1.97161572914823E-16   1.99723680943368E-07   1.99588847715734E-07
     -7.08319471519598E-14  -1.20000000000000E+01  -1.20000000000000E+01   0.00000000000000E+00  -6.61177451531042E-07
     -4.08166379754954E-15  -2.57961978402077E-07  -9.19139434014783E-07  -9.62005320045051E-14
      8.54975585937500E-11
      8.00000000000000E-01   8.00000000000000E-01   0.00000000000000E+00   6.27298461361428E-11   7.81395619158095E-07
     -8.35001801491263E-09   7.73108330989319E-07   1.67046373194567E-13   0.00000000000000E+00   0.00000000000000E+00
      0.00000000000000E+00  -9.28944975489253E-11  -1.97161695035773E-16   1.38012850235935E-07   1.37919955541224E-07
     -7.08271241099908E-14  -1.20000000000000E+01  -1.20000000000000E+01   0.00000000000000E+00  -6.37070799376824E-07
     -4.11712447121978E-15  -2.73957483036597E-07  -9.11028286530545E-07  -9.62192490845755E-14
      1.28746337890625E-10
      8.00000000000000E-01   8.00000000000000E-01   0.00000000000000E+00   2.94367308795306E-11   8.21495359247250E-07
     -6.03818394934527E-09   8.15486612028784E-07   1.67068562450531E-13   0.00000000000000E+00   0.00000000000000E+00
      0.00000000000000E+00  -5.79054037209595E-11  -1.97161818217224E-16   7.68635781870187E-08   7.68056725861359E-08
     -7.08225509266537E-14  -1.20000000000000E+01  -1.20000000000000E+01   0.00000000000000E+00  -6.00629176818986E-07
     -4.13541917790027E-15  -2.91663103660514E-07  -8.92292284614920E-07  -9.62460115238779E-14
      1.93619506835937E-10
      8.00000000000000E-01   8.00000000000000E-01   0.00000000000000E+00   6.22410754301914E-12   8.40347359225942E-07
     -3.70941684820703E-09   8.36644166485278E-07   1.67102751459500E-13   0.00000000000000E+00   0.00000000000000E+00
      0.00000000000000E+00  -3.32799773946936E-11  -1.97161934254482E-16   2.17372462511324E-08   2.17039660765758E-08
     -7.08194541451953E-14  -1.20000000000000E+01  -1.20000000000000E+01   0.00000000000000E+00  -5.49297900628646E-07
     -4.14309930260709E-15  -3.09050227790111E-07  -8.58348132561857E-07  -9.62832973143039E-14
      2.42274383544922E-10
      8.00000000000000E-01   8.00000000000000E-01   0.00000000000000E+00  -1.22401742937205E-12   8.39072309430697E-07
     -2.58489882541602E-09   8.36486186587852E-07   1.67128240004954E-13   0.00000000000000E+00   0.00000000000000E+00
      0.00000000000000E+00  -2.54722457230135E-11  -1.97161994962187E-16  -5.27646179298596E-09  -5.30193423587097E-09
     -7.08190789287903E-14  -1.20000000000000E+01  -1.20000000000000E+01   0.00000000000000E+00  -5.14082460301168E-07
     -4.14489985751246E-15  -3.17101787905912E-07  -8.31184252351980E-07  -9.63091610761641E-14
      3.15256698608398E-10
      8.00000000000000E-01   8.00000000000000E-01   0.00000000000000E+00  -6.02969537963393E-12   8.28335507775158E-07
     -1.50724644219626E-09   8.26822231637582E-07   1.67165551938305E-13   0.00000000000000E+00   0.00000000000000E+00
      0.00000000000000E+00  -2.06071560281738E-11  -1.97162070778675E-16  -3.70310820350973E-08  -3.70516893882875E-08
     -7.08206517944848E-14  -1.20000000000000E+01  -1.20000000000000E+01   0.00000000000000E+00  -4.65701889357543E-07
     -4.14643403134500E-15  -3.24068648745317E-07  -7.89770542249294E-07  -9.63449001438198E-14
      3.69993434906006E-10
      8.00000000000000E-01   8.00000000000000E-01   0.00000000000000E+00  -7.25772326194680E-12   8.17564959434839E-07
     -1.01518828485845E-09   8.16542513426718E-07   1.67192723161674E-13   0.00000000000000E+00   0.00000000000000E+00
      0.00000000000000E+00  -1.94130540773939E-11  -1.97162122894810E-16  -5.78674443371195E-08  -5.78868575883590E-08
     -7.08232549456159E-14  -1.20000000000000E+01  -1.20000000000000E+01   0.00000000000000E+00  -4.32141360933607E-07
     -4.14730387343271E-15  -3.26514290757448E-07  -7.58655655838359E-07  -9.63694682160582E-14
      4.52098539352417E-10
      8.00000000000000E-01   8.00000000000000E-01   0.00000000000000E+00  -7.97977260972232E-12   8.00459236923391E-07
     -5.66904009950826E-10   7.99884353140830E-07   1.67232225038797E-13   0.00000000000000E+00   0.00000000000000E+00
      0.00000000000000E+00  -1.85948944972023E-11  -1.97162199021638E-16  -8.75674410062062E-08  -8.75860360978656E-08
     -7.08292292046534E-14  -1.20000000000000E+01  -1.20000000000000E+01   0.00000000000000E+00  -3.84813542105105E-07
     -4.14845712112355E-15  -3.27484770789401E-07  -7.12298317042963E-07  -9.64029958341427E-14
      5.13677367687225E-10
      8.00000000000000E-01   8.00000000000000E-01   0.00000000000000E+00  -8.41782924461586E-12   7.87230243274194E-07
     -3.73508669239938E-10   7.86848316775709E-07   1.67260927442372E-13   0.00000000000000E+00   0.00000000000000E+00
      0.00000000000000E+00  -1.79023152429467E-11  -1.97162254736741E-16  -1.08964528014928E-07  -1.08982430527334E-07
     -7.08352779415730E-14  -1.20000000000000E+01  -1.20000000000000E+01   0.00000000000000E+00  -3.51047306702169E-07
     -4.14923133622341E-15  -3.26818575396975E-07  -6.77865886248376E-07  -9.64256495007999E-14
      5.59861488938332E-10
      8.00000000000000E-01   8.00000000000000E-01   0.00000000000000E+00  -8.93556495058790E-12   7.76872365519910E-07
     -2.76691608963195E-10   7.76586738345996E-07   1.67281953376434E-13   0.00000000000000E+00   0.00000000000000E+00
      0.00000000000000E+00  -1.70752260627368E-11  -1.97162295122367E-16  -1.24325883420575E-07  -1.24342958843800E-07
     -7.08406607855232E-14  -1.20000000000000E+01  -1.20000000000000E+01   0.00000000000000E+00  -3.26418587293917E-07
     -4.14976580483362E-15  -3.25825188058513E-07  -6.52243779502196E-07  -9.64412925909121E-14
      6.29137670814991E-10
      8.00000000000000E-01   8.00000000000000E-01   0.00000000000000E+00  -1.01879197857743E-11   7.59891718508146E-07
     -1.80039317498227E-10   7.59701491270862E-07   1.67312656567951E-13   0.00000000000000E+00   0.00000000000000E+00
      0.00000000000000E+00  -1.51467530706068E-11  -1.97162351672068E-16  -1.45553602563622E-07  -1.45568749513855E-07
     -7.08500042771731E-14  -1.20000000000000E+01  -1.20000000000000E+01   0.00000000000000E+00  -2.90309848428988E-07
     -4.15049560360749E-15  -3.23822889177523E-07  -6.14132741757006E-07  -9.64626522907779E-14
      7.33051943629980E-10
      8.00000000000000E-01   8.00000000000000E-01   0.00000000000000E+00  -1.32498248648357E-11   7.28833079565444E-07
     -1.00048964760099E-10   7.28719780775819E-07   1.67356539150618E-13   0.00000000000000E+00   0.00000000000000E+00
      0.00000000000000E+00  -1.05515043719093E-11  -1.97162421866937E-16  -1.70989022114290E-07  -1.70999573815825E-07
     -7.08664654515265E-14  -1.20000000000000E+01  -1.20000000000000E+01   0.00000000000000E+00  -2.37590842074555E-07
     -4.15143259943768E-15  -3.20129360734005E-07  -5.57720206959993E-07  -9.64900736990919E-14
      8.10987648241222E-10
      8.00000000000000E-01   8.00000000000000E-01   0.00000000000000E+00  -1.63587222831337E-11   6.99303312126860E-07
     -6.87804038964028E-11   6.99218173000680E-07   1.67387345036927E-13   0.00000000000000E+00   0.00000000000000E+00
      0.00000000000000E+00  -5.90148073242685E-12  -1.97162458483192E-16  -1.83114186537231E-07  -1.83120088215125E-07
     -7.08802598525968E-14  -1.20000000000000E+01  -1.20000000000000E+01   0.00000000000000E+00  -1.99031614821776E-07
     -4.15201396325537E-15  -3.17066465811764E-07  -5.16098084785553E-07  -9.65070851843295E-14
      9.27891205158085E-10
      8.00000000000000E-01   8.00000000000000E-01   0.00000000000000E+00  -2.15782532549110E-11   6.42455757203885E-07
     -4.32478178015054E-11   6.42390931132829E-07   1.67429001970655E-13   0.00000000000000E+00   0.00000000000000E+00
      0.00000000000000E+00   2.14092406199314E-12  -1.97162480642469E-16  -1.87143369751795E-07  -1.87141229024896E-07
     -7.09019400763782E-14  -1.20000000000000E+01  -1.20000000000000E+01   0.00000000000000E+00  -1.42939629927038E-07
     -4.15269680164560E-15  -3.12310068028199E-07  -4.55249702107934E-07  -9.65270618942769E-14
      1.01556887284573E-09
      8.00000000000000E-01   8.00000000000000E-01   0.00000000000000E+00  -2.52080153901441E-11   5.89826698370571E-07
     -3.31584188665667E-11   5.89768331936314E-07   1.67455776819309E-13   0.00000000000000E+00   0.00000000000000E+00
      0.00000000000000E+00   8.15224990059424E-12  -1.97162470018700E-16  -1.78371443701104E-07  -1.78363291648366E-07
     -7.09179543570152E-14  -1.20000000000000E+01  -1.20000000000000E+01   0.00000000000000E+00  -1.02681778657887E-07
     -4.15306476677946E-15  -3.08723257476996E-07  -4.11405040287947E-07  -9.65378224622933E-14
      1.14708537437720E-09
      8.00000000000000E-01   8.00000000000000E-01   0.00000000000000E+00  -2.87506684816157E-11   4.98569115562843E-07
     -2.45043472766462E-11   4.98515860547085E-07   1.67487069356479E-13   0.00000000000000E+00   0.00000000000000E+00
      0.00000000000000E+00   1.53237829870770E-11  -1.97162415953953E-16  -1.48493067382414E-07  -1.48477743796589E-07
     -7.09394649621733E-14  -1.20000000000000E+01  -1.20000000000000E+01   0.00000000000000E+00  -4.65971983676618E-08
     -4.15339960546673E-15  -3.03440914229432E-07  -3.50038116750494E-07  -9.65476043943063E-14
      1.24572275052581E-09
      8.00000000000000E-01   8.00000000000000E-01   0.00000000000000E+00  -2.93353688866117E-11   4.25115689225112E-07
     -2.07403978140733E-11   4.25065613458411E-07   1.67502817114688E-13   0.00000000000000E+00   0.00000000000000E+00
      0.00000000000000E+00   1.84325303880924E-11  -1.97162354290493E-16  -1.16555665626512E-07  -1.16537233293287E-07
     -7.09524924949987E-14  -1.20000000000000E+01  -1.20000000000000E+01   0.00000000000000E+00  -8.93106291583966E-09
     -4.15349314203218E-15  -2.99597313095790E-07  -3.08528380165123E-07  -9.65503246196888E-14
      1.39367881474871E-09
      8.00000000000000E-01   8.00000000000000E-01   0.00000000000000E+00  -2.68737877060083E-11   3.18375511315019E-07
     -1.70930241853283E-11   3.18331544503128E-07   1.67513721591686E-13   0.00000000000000E+00   0.00000000000000E+00
      0.00000000000000E+00   1.90709907708651E-11  -1.97162250635745E-16  -6.31820063210815E-08  -6.31629355274729E-08
     -7.09656826139833E-14  -1.20000000000000E+01  -1.20000000000000E+01   0.00000000000000E+00   3.88852804260283E-08
     -4.15341613356216E-15  -2.94053885248267E-07  -2.55168608975655E-07  -9.65480389777024E-14
      1.50464586291589E-09
      8.00000000000000E-01   8.00000000000000E-01   0.00000000000000E+00  -2.31000456405724E-11   2.47537780898814E-07
     -1.52435864087237E-11   2.47499437266765E-07   1.67512566761319E-13   0.00000000000000E+00   0.00000000000000E+00
      0.00000000000000E+00   1.69908584986314E-11  -1.97162176411487E-16  -2.49702589526015E-08  -2.49532682912650E-08
     -7.09704603148645E-14  -1.20000000000000E+01  -1.20000000000000E+01   0.00000000000000E+00   6.75089854074826E-08
     -4.15321438218841E-15  -2.90055150229768E-07  -2.22546168975500E-07  -9.65421064464543E-14
      1.67109643516666E-09
      8.00000000000000E-01   8.00000000000000E-01   0.00000000000000E+00  -1.63832610654692E-11   1.63802058735035E-07
     -1.31884623747551E-11   1.63772487011594E-07   1.67498649982726E-13   0.00000000000000E+00   0.00000000000000E+00
      0.00000000000000E+00   1.18821434582244E-11  -1.97162081564083E-16   2.08526291728384E-08   2.08645111191346E-08
     -7.09705336467525E-14  -1.20000000000000E+01  -1.20000000000000E+01   0.00000000000000E+00   9.95586599323456E-08
     -4.15273795981554E-15  -2.84195653910337E-07  -1.84636998130729E-07  -9.65281163359724E-14
      1.79593436435473E-09
      8.00000000000000E-01   8.00000000000000E-01   0.00000000000000E+00  -1.16739207727630E-11   1.19311436928069E-07
     -1.19963322059778E-11   1.19287766675090E-07   1.67480909683133E-13   0.00000000000000E+00   0.00000000000000E+00
      0.00000000000000E+00   7.81555009438691E-12  -1.97162020754817E-16   4.41588789821349E-08   4.41666943350672E-08
     -7.09662962957756E-14  -1.20000000000000E+01  -1.20000000000000E+01   0.00000000000000E+00   1.16313614939923E-07
     -4.15227788238074E-15  -2.79768071797802E-07  -1.63454461010158E-07  -9.65146133873576E-14
      1.98319125813684E-09
      8.00000000000000E-01   8.00000000000000E-01   0.00000000000000E+00  -6.40310787294938E-12   7.66540956340926E-08
     -1.05282440469972E-11   7.66371642821727E-08   1.67447113223831E-13   0.00000000000000E+00   0.00000000000000E+00
      0.00000000000000E+00   2.98774977502367E-12  -1.97161932434853E-16   6.30533225486033E-08   6.30563101012164E-08
     -7.09559055035631E-14  -1.20000000000000E+01  -1.20000000000000E+01   0.00000000000000E+00   1.32950045359972E-07
     -4.15148020694394E-15  -2.72643515591881E-07  -1.39693474383389E-07  -9.64912077202679E-14
      2.12363392847343E-09
      8.00000000000000E-01   8.00000000000000E-01   0.00000000000000E+00  -3.93209043054441E-12   5.82780513618137E-08
     -9.59815017613937E-12   5.82645211212070E-08   1.67418479098167E-13   0.00000000000000E+00   0.00000000000000E+00
      0.00000000000000E+00   6.41952635351971E-13  -1.97161862062600E-16   6.77552409733270E-08   6.77558827288005E-08
     -7.09464968187908E-14  -1.20000000000000E+01  -1.20000000000000E+01   0.00000000000000E+00   1.40551638025682E-07
     -4.15082491561011E-15  -2.66572037724865E-07  -1.26020403850008E-07  -9.64719822793759E-14
      2.33429793397831E-09
      8.00000000000000E-01   8.00000000000000E-01   0.00000000000000E+00  -1.95087206709846E-12   4.27112738288872E-08
     -8.38420233588469E-12   4.27009387544842E-08   1.67373690337382E-13   0.00000000000000E+00   0.00000000000000E+00
      0.00000000000000E+00  -1.23435430970783E-12  -1.97161750909632E-16   6.62776650686962E-08   6.62764305172247E-08
     -7.09320025837940E-14  -1.20000000000000E+01  -1.20000000000000E+01   0.00000000000000E+00   1.46578669868096E-07
     -4.14979228588462E-15  -2.55556034990013E-07  -1.08977369271709E-07  -9.64416877535879E-14
      2.49229593810696E-09
      8.00000000000000E-01   8.00000000000000E-01   0.00000000000000E+00  -1.28899981283144E-12   3.61505416062086E-08
     -7.58457936563154E-12   3.61416680270301E-08   1.67340057977731E-13   0.00000000000000E+00   0.00000000000000E+00
      0.00000000000000E+00  -1.80826334940000E-12  -1.97161670889358E-16   6.16294943411864E-08   6.16276858806754E-08
     -7.09216308990842E-14  -1.20000000000000E+01  -1.20000000000000E+01   0.00000000000000E+00   1.47631527999048E-07
     -4.14899938595849E-15  -2.45400877757754E-07  -9.77693539077055E-08  -9.64184270786473E-14
      2.72929294429995E-09
      8.00000000000000E-01   8.00000000000000E-01   0.00000000000000E+00  -8.51506194048048E-13   2.96236627734234E-08
     -6.52566472480910E-12   2.96162856025045E-08   1.67291427665238E-13   0.00000000000000E+00   0.00000000000000E+00
      0.00000000000000E+00  -2.04807471545738E-12  -1.97161573343579E-16   5.28240321786329E-08   5.28219839067558E-08
     -7.09076528339166E-14  -1.20000000000000E+01  -1.20000000000000E+01   0.00000000000000E+00   1.44312443415731E-07
     -4.14781812116446E-15  -2.26750708777173E-07  -8.24382695092604E-08  -9.63837748313211E-14
      2.90704069894469E-09
      8.00000000000000E-01   8.00000000000000E-01   0.00000000000000E+00  -7.08452838341087E-13   2.59942111301967E-08
     -5.82770228205333E-12   2.59876749750763E-08   1.67257200884459E-13   0.00000000000000E+00   0.00000000000000E+00
      0.00000000000000E+00  -1.98981993166990E-12  -1.97161523791382E-16   4.59657859229235E-08   4.59637959058303E-08
     -7.08985612178662E-14  -1.20000000000000E+01  -1.20000000000000E+01   0.00000000000000E+00   1.38264212976202E-07
     -4.14696122084883E-15  -2.10215679710147E-07  -7.19514708809065E-08  -9.63586396665928E-14
      3.17366233091180E-09
      8.00000000000000E-01   8.00000000000000E-01   0.00000000000000E+00  -5.76945945273821E-13   2.14971448020163E-08
     -4.91355348091514E-12   2.14916543025901E-08   1.67210677951017E-13   0.00000000000000E+00   0.00000000000000E+00
      0.00000000000000E+00  -1.75991260342538E-12  -1.97161486594792E-16   3.64105102197480E-08   3.64087501099830E-08
     -7.08871253264388E-14  -1.20000000000000E+01  -1.20000000000000E+01   0.00000000000000E+00   1.24527392691281E-07
     -4.14576490238749E-15  -1.82427792958089E-07  -5.79004044125732E-08  -9.63235526245780E-14
      3.37362855488714E-09
      8.00000000000000E-01   8.00000000000000E-01   0.00000000000000E+00  -5.02809536923516E-13   1.86535722945114E-08
     -4.32093330509540E-12   1.86487485516693E-08   1.67180071716758E-13   0.00000000000000E+00   0.00000000000000E+00
      0.00000000000000E+00  -1.53883724526293E-12  -1.97161482081232E-16   3.01158019490158E-08   3.01142629146091E-08
     -7.08801404333015E-14  -1.20000000000000E+01  -1.20000000000000E+01   0.00000000000000E+00   1.11594527925132E-07
     -4.14495939694571E-15  -1.60357535246451E-07  -4.87630114662784E-08  -9.62999312834561E-14
      3.52360322286864E-09
      8.00000000000000E-01   8.00000000000000E-01   0.00000000000000E+00  -4.53117215821116E-13   1.67635436592278E-08
     -3.92280494775085E-12   1.67591677370642E-08   1.67159672286667E-13   0.00000000000000E+00   0.00000000000000E+00
      0.00000000000000E+00  -1.36573163854211E-12  -1.97161487870316E-16   2.59589306221299E-08   2.59575646933298E-08
     -7.08756929768534E-14  -1.20000000000000E+01  -1.20000000000000E+01   0.00000000000000E+00   1.01103523012665E-07
     -4.14441535884545E-15  -1.43820251298643E-07  -4.27167324303939E-08  -9.62839793098144E-14
      3.74856522484089E-09
      8.00000000000000E-01   8.00000000000000E-01   0.00000000000000E+00  -3.85874167757781E-13   1.42754365240488E-08
     -3.39175751777999E-12   1.42716588923632E-08   1.67133145549194E-13   0.00000000000000E+00   0.00000000000000E+00
      0.00000000000000E+00  -1.11693847955719E-12  -1.97161506030152E-16   2.06344145409925E-08   2.06332974053514E-08
     -7.08701136198215E-14  -1.20000000000000E+01  -1.20000000000000E+01   0.00000000000000E+00   8.51541987062164E-08
     -4.14370086491749E-15  -1.20059150860230E-07  -3.49049562977147E-08  -9.62630319293720E-14
      4.08600822779926E-09
      8.00000000000000E-01   8.00000000000000E-01   0.00000000000000E+00  -3.00354585005399E-13   1.12263659561327E-08
     -2.72428968378576E-12   1.12233413118639E-08   1.67101831606710E-13   0.00000000000000E+00   0.00000000000000E+00
      0.00000000000000E+00  -7.86517137776783E-13  -1.97161545198758E-16   1.45288877878710E-08   1.45281010735717E-08
     -7.08637384374007E-14  -1.20000000000000E+01  -1.20000000000000E+01   0.00000000000000E+00   6.29425458944322E-08
     -4.14285008787733E-15  -8.86939841370177E-08  -2.57514423854356E-08  -9.62380931693090E-14
      4.59217273223682E-09
      8.00000000000000E-01   8.00000000000000E-01   0.00000000000000E+00  -2.04103806005699E-13   7.87761785502423E-09
     -1.95712898802889E-12   7.87545662223020E-09   1.67070287680101E-13   0.00000000000000E+00   0.00000000000000E+00
      0.00000000000000E+00  -4.33815386898809E-13  -1.97161613528778E-16   8.70539977194904E-09   8.70496575940053E-09
     -7.08573407770143E-14  -1.20000000000000E+01  -1.20000000000000E+01   0.00000000000000E+00   3.73131292669559E-08
     -4.14199206522603E-15  -5.38935475065945E-08  -1.65804223816307E-08  -9.62129469030865E-14
      5.35141948889316E-09
      8.00000000000000E-01   8.00000000000000E-01   0.00000000000000E+00  -1.16033604088984E-13   4.71741668297206E-09
     -1.18610176894473E-12   4.71611454759903E-09   1.67044964858690E-13   0.00000000000000E+00   0.00000000000000E+00
      0.00000000000000E+00  -1.71332809116465E-13  -1.97161715073389E-16   4.46944964686112E-09   4.46927811689029E-09
     -7.08518201656498E-14  -1.20000000000000E+01  -1.20000000000000E+01   0.00000000000000E+00   1.63332574091013E-08
     -4.14131622813354E-15  -2.55186459322744E-08  -9.18539266448929E-09  -9.61931446930400E-14
      6.49028962387768E-09
      8.00000000000000E-01   8.00000000000000E-01   0.00000000000000E+00  -5.34497689492739E-14   2.23615578359941E-09
     -5.52337470822250E-13   2.23554999635964E-09   1.67028696970935E-13   0.00000000000000E+00   0.00000000000000E+00
      0.00000000000000E+00  -5.99958516503171E-14  -1.97161846517322E-16   2.09154350774398E-09   2.09148331473049E-09
     -7.08476581656452E-14  -1.20000000000000E+01  -1.20000000000000E+01   0.00000000000000E+00   6.01331587065206E-09
     -4.14090286865544E-15  -1.03403450408393E-08  -4.32703331109012E-09  -9.61810388052896E-14
      8.19859482635445E-09
      8.00000000000000E-01   8.00000000000000E-01   0.00000000000000E+00  -1.73560606624512E-14   7.05067789215256E-10
     -1.67827310537711E-13   7.04882605844056E-10   1.67019307789853E-13   0.00000000000000E+00   0.00000000000000E+00
      0.00000000000000E+00  -2.34761542706742E-14  -1.97161989498647E-16   7.67807839710371E-10   7.67784166394111E-10
     -7.08450221911917E-14  -1.20000000000000E+01  -1.20000000000000E+01   0.00000000000000E+00   2.18214159477090E-09
     -4.14067214000787E-15  -3.65480422633693E-09  -1.47266677223817E-09  -9.61742855986608E-14
      1.07610526300696E-08
      8.00000000000000E-01   8.00000000000000E-01   0.00000000000000E+00  -2.42554438851743E-15   9.70116573266428E-11
     -2.28432000813342E-14   9.69863885821729E-11   1.67015278060537E-13   0.00000000000000E+00   0.00000000000000E+00
      0.00000000000000E+00  -3.47079771068881E-15  -1.97162102263269E-16   1.61124465190630E-10   1.61120797230818E-10
     -7.08439415553843E-14  -1.20000000000000E+01  -1.20000000000000E+01   0.00000000000000E+00   3.27301378874069E-10
     -4.14057137820106E-15  -5.85404424115682E-10  -2.58107185812991E-10  -9.61713365051527E-14
      1.26828959828560E-08
      8.00000000000000E-01   8.00000000000000E-01   0.00000000000000E+00  -6.01918291193162E-16   2.48961536861753E-11
     -5.80212999848546E-15   2.48897496378856E-11   1.67014791887243E-13   0.00000000000000E+00   0.00000000000000E+00
      0.00000000000000E+00  -8.49517116239245E-16  -1.97162133700138E-16   8.72166616360324E-11   8.72156149567825E-11
     -7.08438141401720E-14  -1.20000000000000E+01  -1.20000000000000E+01   0.00000000000000E+00   7.52317866306235E-11
     -4.14055912191828E-15  -1.87333010666170E-10  -1.12105364594668E-10  -9.61709777470709E-14
      1.55656610120355E-08
      8.00000000000000E-01   8.00000000000000E-01   0.00000000000000E+00  -5.43279420145574E-17   2.56501467043219E-12
     -5.00892268272577E-16   2.56445945022190E-12   1.67014645444417E-13   0.00000000000000E+00   0.00000000000000E+00
      0.00000000000000E+00  -8.95554281974227E-17  -1.97162139263092E-16   6.51445778335942E-11   6.51442911160267E-11
     -7.08437753221294E-14  -1.20000000000000E+01  -1.20000000000000E+01   0.00000000000000E+00   7.76702271811074E-12
     -4.14055544461667E-15  -7.54716327289148E-11  -6.77087505662487E-11  -9.61708701222873E-14
      1.77277347839202E-08
      8.00000000000000E-01   8.00000000000000E-01   0.00000000000000E+00  -1.05928234867906E-17   7.55275103377403E-13
     -8.65227092609964E-17   7.55177987844655E-13   1.67014633904860E-13   0.00000000000000E+00   0.00000000000000E+00