DF-ISE text

Info {
  version   = 1.0
  type      = xyplot
  datasets  = [
    "time"
    "Ntop OuterVoltage" "Ntop InnerVoltage" "Ntop QuasiFermiPotential" "Ntop DisplacementCurrent" "Ntop eCurrent"
    "Ntop hCurrent" "Ntop TotalCurrent" "Ntop Charge" "Ptop OuterVoltage" "Ptop InnerVoltage"
    "Ptop QuasiFermiPotential" "Ptop DisplacementCurrent" "Ptop eCurrent" "Ptop hCurrent" "Ptop TotalCurrent"
    "Ptop Charge" "Pbot OuterVoltage" "Pbot InnerVoltage" "Pbot QuasiFermiPotential" "Pbot DisplacementCurrent"
    "Pbot eCurrent" "Pbot hCurrent" "Pbot TotalCurrent" "Pbot Charge" ]
  functions = [
    Time
    OuterVoltage InnerVoltage QuasiFermiPotential DisplacementCurrent eCurrent
    hCurrent TotalCurrent Charge OuterVoltage InnerVoltage
    QuasiFermiPotential DisplacementCurrent eCurrent hCurrent TotalCurrent
    Charge OuterVoltage InnerVoltage QuasiFermiPotential DisplacementCurrent
    eCurrent hCurrent TotalCurrent Charge ]
}

Data {
      5.00000000000000E-13
      8.00000000000000E-01   8.00000000000000E-01   0.00000000000000E+00   1.19524242577571E-14   1.86466891052504E-11
     -1.75921798522258E-11   1.06646167728234E-12   2.34224766837435E-13   0.00000000000000E+00   0.00000000000000E+00
      0.00000000000000E+00  -1.11320699344289E-13  -1.97157898427484E-16   1.75481140124265E-09   1.75469988338541E-09
     -6.21801123148127E-14  -4.50000000000000E+01  -4.50000000000000E+01   0.00000000000000E+00  -1.03997600764858E-12
      3.50922341030708E-11  -1.78981860315812E-09  -1.75576634506269E-09  -1.72044654522623E-13
      1.25000000000000E-12
      8.00000000000000E-01   8.00000000000000E-01   0.00000000000000E+00   2.60308001070926E-13   8.56283695823049E-11
     -8.11756154721501E-11   4.71306211122579E-12   2.34224766838405E-13   0.00000000000000E+00   0.00000000000000E+00
      0.00000000000000E+00   1.54050007413185E-13  -1.97157898421688E-16   1.75761095838218E-09   1.75776481123169E-09
     -6.21801123132681E-14  -4.50000000000000E+01  -4.50000000000000E+01   0.00000000000000E+00  -6.00022419531602E-12
      1.61913288799778E-10  -1.91839093794738E-09  -1.76247787334292E-09  -1.72044654525137E-13
      2.37500000000000E-12
      8.00000000000000E-01   8.00000000000000E-01   0.00000000000000E+00   2.03387055390937E-12   7.17226474862295E-10
     -6.71654941457274E-10   4.76054039589305E-11   2.34224766852553E-13   0.00000000000000E+00   0.00000000000000E+00
      0.00000000000000E+00   2.61040963034615E-12  -1.97157898352323E-16   1.79193986364906E-09   1.79455007612151E-09
     -6.21801122901185E-14  -4.50000000000000E+01  -4.50000000000000E+01   0.00000000000000E+00  -6.49523129962156E-11
      1.33930145638487E-09  -3.11650462346909E-09  -1.84215548008044E-09  -1.72044654562434E-13
      4.06250000000000E-12
      8.00000000000000E-01   8.00000000000000E-01   0.00000000000000E+00   3.06053344153107E-11   1.11472542919915E-08
     -1.01891607304506E-08   9.88698895956149E-10   2.34224767268323E-13   0.00000000000000E+00   0.00000000000000E+00
      0.00000000000000E+00   3.92384626305568E-11  -1.97157896766448E-16   2.57850402758415E-09   2.61774229305681E-09
     -6.21801115895743E-14  -4.50000000000000E+01  -4.50000000000000E+01   0.00000000000000E+00  -1.37055751725987E-09
      2.03067837784696E-08  -2.25426674502227E-08  -3.60644118901296E-09  -1.72044655678749E-13
      6.59375000000000E-12
      8.00000000000000E-01   8.00000000000000E-01   0.00000000000000E+00   6.09690022571210E-10   2.32127849169751E-07
     -2.03909582331984E-07   2.88279568603386E-08   2.34224784993072E-13   0.00000000000000E+00   0.00000000000000E+00
      0.00000000000000E+00   7.91828322530588E-10  -1.97157848337318E-16   2.65722882175566E-08   2.73641163429293E-08
     -6.21800809350446E-14  -4.50000000000000E+01  -4.50000000000000E+01   0.00000000000000E+00  -4.02833811264593E-08
      4.06028822567113E-07  -4.21937514643922E-07  -5.61920732032679E-08  -1.72044704058028E-13
      1.03906250000000E-11
      8.00000000000000E-01   8.00000000000000E-01   0.00000000000000E+00   5.09791915547173E-09   2.08123570422836E-06
     -1.69718642761178E-06   3.89147195772046E-07   2.34225160806414E-13   0.00000000000000E+00   0.00000000000000E+00
      0.00000000000000E+00   6.55447861248383E-09  -1.97157210068634E-16   3.42280673885880E-07   3.48835152301207E-07
     -6.21794219031377E-14  -4.50000000000000E+01  -4.50000000000000E+01   0.00000000000000E+00  -5.44245616200448E-07
      3.37368717662103E-06  -3.56742390849383E-06  -7.37982348073251E-07  -1.72045738903276E-13
      1.60859375000000E-11
      8.00000000000000E-01   8.00000000000000E-01   0.00000000000000E+00   2.99038119856721E-09   1.86214131635282E-06
     -9.08200460189691E-07   9.56931237361692E-07   2.34227133080350E-13   0.00000000000000E+00   0.00000000000000E+00
      0.00000000000000E+00   3.06075707463805E-09  -1.97156244707040E-16   8.16873870154812E-07   8.19934627032293E-07
     -6.21760365141356E-14  -4.50000000000000E+01  -4.50000000000000E+01   0.00000000000000E+00  -1.30451877627095E-06
      1.77770123411005E-06  -2.25004832223308E-06  -1.77686586439398E-06  -1.72051096566214E-13
      2.46289062500000E-11
      8.00000000000000E-01   8.00000000000000E-01   0.00000000000000E+00   4.09549878428625E-10   1.27689762001227E-06
     -2.26910735780578E-08   1.25461609631264E-06   2.34232054809706E-13   0.00000000000000E+00   0.00000000000000E+00
      0.00000000000000E+00  -5.02485651238729E-10  -1.97155968396067E-16   9.47516816880200E-07   9.47014331031806E-07
     -6.21683563759306E-14  -4.50000000000000E+01  -4.50000000000000E+01   0.00000000000000E+00  -1.59185083257206E-06
      3.29405729051004E-09  -6.13073652062892E-07  -2.20163042734445E-06  -1.72063698433775E-13
      3.74433593750000E-11
      8.00000000000000E-01   8.00000000000000E-01   0.00000000000000E+00   2.93039809687818E-10   1.37805194481133E-06
     -1.91425915526495E-08   1.35920239306837E-06   2.34240772056912E-13   0.00000000000000E+00   0.00000000000000E+00
      0.00000000000000E+00  -3.73323633822117E-10  -1.97156162187183E-16   8.43584075171986E-07   8.43210751341007E-07
     -6.21569343148427E-14  -4.50000000000000E+01  -4.50000000000000E+01   0.00000000000000E+00  -1.55134213519636E-06
     -6.25658958603461E-15  -6.51071002956423E-07  -2.20241314440937E-06  -1.72083837742070E-13
      5.66650390625000E-11
      8.00000000000000E-01   8.00000000000000E-01   0.00000000000000E+00   1.97049057827034E-10   1.48296686827635E-06
     -1.65909320048956E-08   1.46657298532928E-06   2.34255033548528E-13   0.00000000000000E+00   0.00000000000000E+00
      0.00000000000000E+00  -2.64949186786620E-10  -1.97156374715889E-16   7.27949501586729E-07   7.27684552202786E-07
     -6.21419288376940E-14  -4.50000000000000E+01  -4.50000000000000E+01   0.00000000000000E+00  -1.49452660185882E-06
     -6.25748827136823E-15  -6.99730929415764E-07  -2.19425753753207E-06  -1.72113104710833E-13
      8.54975585937500E-11
      8.00000000000000E-01   8.00000000000000E-01   0.00000000000000E+00   1.15680825564097E-10   1.57943935196745E-06
     -1.33793946763517E-08   1.56617563811666E-06   2.34277952644166E-13   0.00000000000000E+00   0.00000000000000E+00
      0.00000000000000E+00  -1.71859483166375E-10  -1.97156586369368E-16   6.09841002250836E-07   6.09669142570513E-07
     -6.21228146939790E-14  -4.50000000000000E+01  -4.50000000000000E+01   0.00000000000000E+00  -1.42233152039230E-06
     -6.25843365836300E-15  -7.53513254036448E-07  -2.17584478068718E-06  -1.72155137950187E-13
      1.28746337890625E-10
      8.00000000000000E-01   8.00000000000000E-01   0.00000000000000E+00   5.25546728413616E-11   1.65212427388355E-06
     -9.68029339372396E-09   1.64249653516267E-06   2.34313843569942E-13   0.00000000000000E+00   0.00000000000000E+00
      0.00000000000000E+00  -9.91958633064708E-11  -1.97156772247458E-16   5.00299103996184E-07   5.00199907935721E-07
     -6.20990947817300E-14  -4.50000000000000E+01  -4.50000000000000E+01   0.00000000000000E+00  -1.33620381080669E-06
     -6.25977979755347E-15  -8.06492626031919E-07  -2.14269644309839E-06  -1.72214748788210E-13
      1.61182922363281E-10
      8.00000000000000E-01   8.00000000000000E-01   0.00000000000000E+00   2.72573468625396E-11   1.67524555323035E-06
     -7.60016568581004E-09   1.66767264489140E-06   2.34341111825363E-13   0.00000000000000E+00   0.00000000000000E+00
      0.00000000000000E+00  -7.05284113354834E-11  -1.97156850883664E-16   4.48355499391409E-07   4.48284970782916E-07
     -6.20838729482035E-14  -4.50000000000000E+01  -4.50000000000000E+01   0.00000000000000E+00  -1.28441202048762E-06
     -6.26074210369571E-15  -8.31545588925954E-07  -2.11595761567432E-06  -1.72257238877160E-13
      2.09837799072266E-10
      8.00000000000000E-01   8.00000000000000E-01   0.00000000000000E+00   6.24616038461683E-12   1.68539498607373E-06
     -5.28774647952891E-09   1.68011348575459E-06   2.34381758009568E-13   0.00000000000000E+00   0.00000000000000E+00
      0.00000000000000E+00  -4.75558283175670E-11  -1.97156916602273E-16   3.94365454178641E-07   3.94317898153166E-07
     -6.20636210850201E-14  -4.50000000000000E+01  -4.50000000000000E+01   0.00000000000000E+00  -1.21992916851086E-06
     -6.26212351088023E-15  -8.54502209134764E-07  -2.07443138390775E-06  -1.72318136924548E-13
      2.46328956604004E-10
      8.00000000000000E-01   8.00000000000000E-01   0.00000000000000E+00  -1.65601035658870E-12   1.68242399234179E-06
     -4.03677725641626E-09   1.67838555907501E-06   2.34411833577565E-13   0.00000000000000E+00   0.00000000000000E+00
      0.00000000000000E+00  -3.94441101394820E-11  -1.97156941036539E-16   3.64255200891148E-07   3.64215756583852E-07
     -6.20499396503092E-14  -4.50000000000000E+01  -4.50000000000000E+01   0.00000000000000E+00  -1.17868144509531E-06
     -6.26311715728139E-15  -8.63919864300443E-07  -2.04260131565887E-06  -1.72361893927256E-13
      3.01065692901611E-10
      8.00000000000000E-01   8.00000000000000E-01   0.00000000000000E+00  -7.25028609543530E-12   1.67102401829829E-06
     -2.69703975343478E-09   1.66831972825876E-06   2.34456167967416E-13   0.00000000000000E+00   0.00000000000000E+00
      0.00000000000000E+00  -3.42902074560347E-11  -1.97156958460728E-16   3.26005001377315E-07   3.25970710972702E-07
     -6.20312781307659E-14  -4.50000000000000E+01  -4.50000000000000E+01   0.00000000000000E+00  -1.12363701665266E-06
     -6.26454850959155E-15  -8.70653416314252E-07  -1.99429043923146E-06  -1.72424889836652E-13
      3.42118245124817E-10
      8.00000000000000E-01   8.00000000000000E-01   0.00000000000000E+00  -8.62808337808536E-12   1.66039206799873E-06
     -2.00162176253972E-09   1.65838181815282E-06   2.34488835498833E-13   0.00000000000000E+00   0.00000000000000E+00
      0.00000000000000E+00  -3.34736268440746E-11  -1.97156964607866E-16   2.99490970334273E-07   2.99457496510272E-07
     -6.20185961280828E-14  -4.50000000000000E+01  -4.50000000000000E+01   0.00000000000000E+00  -1.08589053523813E-06
     -6.26557927108950E-15  -8.71948773159378E-07  -1.95783931466308E-06  -1.72470239370752E-13
      4.03697073459625E-10
      8.00000000000000E-01   8.00000000000000E-01   0.00000000000000E+00  -8.63982123699150E-12   1.64474249527676E-06
     -1.28562746472976E-09   1.64344822799080E-06   2.34537054680135E-13   0.00000000000000E+00   0.00000000000000E+00
      0.00000000000000E+00  -3.43397945370909E-11  -1.97156973710906E-16   2.59687398855372E-07   2.59653058863678E-07
     -6.20015976359550E-14  -4.50000000000000E+01  -4.50000000000000E+01   0.00000000000000E+00  -1.03255077484262E-06
     -6.26706180250418E-15  -8.70550505744790E-07  -1.90310128685448E-06  -1.72535457044180E-13
      4.49881194710732E-10
      8.00000000000000E-01   8.00000000000000E-01   0.00000000000000E+00  -7.82673851069727E-12   1.63429867029648E-06
     -9.29892999982611E-10   1.63336095055799E-06   2.34572728225141E-13   0.00000000000000E+00   0.00000000000000E+00
      0.00000000000000E+00  -3.57591663229006E-11  -1.97156984913766E-16   2.28782106858572E-07   2.28746347495092E-07
     -6.19904709264004E-14  -4.50000000000000E+01  -4.50000000000000E+01   0.00000000000000E+00  -9.94218394600714E-07
     -6.26812568118167E-15  -8.67888897184236E-07  -1.86210729805308E-06  -1.72582257298740E-13
      4.84519285649061E-10
      8.00000000000000E-01   8.00000000000000E-01   0.00000000000000E+00  -7.02960708532412E-12   1.62747361820170E-06
     -7.33051365769530E-10   1.62673353722885E-06   2.34599279128963E-13   0.00000000000000E+00   0.00000000000000E+00
      0.00000000000000E+00  -3.69685556637913E-11  -1.97156997519892E-16   2.04734871478573E-07   2.04697902725752E-07
     -6.19830721603865E-14  -4.50000000000000E+01  -4.50000000000000E+01   0.00000000000000E+00  -9.66067169069339E-07
     -6.26889739241920E-15  -8.65364264616362E-07  -1.83143143995460E-06  -1.72616206968577E-13
      5.36476422056556E-10
      8.00000000000000E-01   8.00000000000000E-01   0.00000000000000E+00  -5.74361636811310E-12   1.61894529638904E-06
     -5.16909210536474E-10   1.61842264356214E-06   2.34638881436273E-13   0.00000000000000E+00   0.00000000000000E+00
      0.00000000000000E+00  -3.87732129040780E-11  -1.97157024830367E-16   1.67173116365378E-07   1.67134342955317E-07
     -6.19735618593017E-14  -4.50000000000000E+01  -4.50000000000000E+01   0.00000000000000E+00  -9.24493512422194E-07
     -6.27001366043252E-15  -8.61063467825248E-07  -1.78555698651746E-06  -1.72665319576972E-13
      6.14412126667798E-10
      8.00000000000000E-01   8.00000000000000E-01   0.00000000000000E+00  -3.87882818214950E-12   1.60981152943930E-06
     -3.12230174127969E-10   1.60949542043699E-06   2.34698024975821E-13   0.00000000000000E+00   0.00000000000000E+00
      0.00000000000000E+00  -4.12467411429585E-11  -1.97157087193256E-16   1.07638063839285E-07   1.07596816900984E-07
     -6.19630485731184E-14  -4.50000000000000E+01  -4.50000000000000E+01   0.00000000000000E+00  -8.63133435096189E-07
     -6.27159657564014E-15  -8.53958795970194E-07  -1.71709223733798E-06  -1.72734976402704E-13
      6.72863905126229E-10
      8.00000000000000E-01   8.00000000000000E-01   0.00000000000000E+00  -2.64885191726423E-12   1.60553744095468E-06
     -2.19405781341399E-10   1.60531538632142E-06   2.34742355082840E-13   0.00000000000000E+00   0.00000000000000E+00
      0.00000000000000E+00  -4.28040572555847E-11  -1.97157151830330E-16   6.07562016753096E-08   6.07133974208969E-08
     -6.19582568110929E-14  -4.50000000000000E+01  -4.50000000000000E+01   0.00000000000000E+00  -8.17663784921420E-07
     -6.27271260246004E-15  -8.48364992548183E-07  -1.66602878374231E-06  -1.72784098271750E-13
      7.60541572813876E-10
      8.00000000000000E-01   8.00000000000000E-01   0.00000000000000E+00  -1.17775393694264E-12   1.60243979585822E-06
     -1.34438511574192E-10   1.60230417959271E-06   2.34809110523682E-13   0.00000000000000E+00   0.00000000000000E+00
      0.00000000000000E+00  -4.45895445597344E-11  -1.97157276570917E-16  -1.23684308162184E-08  -1.24130205579354E-08
     -6.19562869821014E-14  -4.50000000000000E+01  -4.50000000000000E+01   0.00000000000000E+00  -7.50071419443358E-07
     -6.27427363380232E-15  -8.39819733317144E-07  -1.58989115903478E-06  -1.72852823541580E-13
      8.92058074345346E-10
      8.00000000000000E-01   8.00000000000000E-01   0.00000000000000E+00   1.29252056334514E-13   1.60290997363210E-06
     -7.15698390364776E-11   1.60283853304512E-06   2.34910389423586E-13   0.00000000000000E+00   0.00000000000000E+00
      0.00000000000000E+00  -4.59948742703845E-11  -1.97157501795147E-16  -1.26102428459464E-07  -1.26148423530892E-07
     -6.19655212380088E-14  -4.50000000000000E+01  -4.50000000000000E+01   0.00000000000000E+00  -6.49772816760583E-07
     -6.27636363619568E-15  -8.26917286477279E-07  -1.47669010951423E-06  -1.72944868185578E-13
      9.90695450493949E-10
      8.00000000000000E-01   8.00000000000000E-01   0.00000000000000E+00   3.44821601434289E-13   1.60528891146829E-06
     -4.94397018950871E-11   1.60523981658799E-06   2.34987539348744E-13   0.00000000000000E+00   0.00000000000000E+00
      0.00000000000000E+00  -4.59808676311980E-11  -1.97157642192399E-16  -2.12622942999126E-07  -2.12668924063915E-07
     -6.19822542494692E-14  -4.50000000000000E+01  -4.50000000000000E+01   0.00000000000000E+00  -5.75311544714487E-07
     -6.27773506109535E-15  -8.17259341531858E-07  -1.39257089252408E-06  -1.73005285099275E-13
      1.06467348260540E-09
      8.00000000000000E-01   8.00000000000000E-01   0.00000000000000E+00  -1.19579565129146E-14   1.60695452515964E-06
     -3.93057051295626E-11   1.60691520749656E-06   2.35046130977078E-13   0.00000000000000E+00   0.00000000000000E+00
      0.00000000000000E+00  -4.52642428469832E-11  -1.97157653849674E-16  -2.76944503970579E-07  -2.76989768410583E-07
     -6.20003369143521E-14  -4.50000000000000E+01  -4.50000000000000E+01   0.00000000000000E+00  -5.19881367291230E-07
     -6.27865441589300E-15  -8.10044065516091E-07  -1.32992543908598E-06  -1.73045794062726E-13
      1.17564053077258E-09
      8.00000000000000E-01   8.00000000000000E-01   0.00000000000000E+00  -1.61432620097620E-12   1.60678729140171E-06
     -2.95136779120821E-11   1.60675616339760E-06   2.35135040834592E-13   0.00000000000000E+00   0.00000000000000E+00
      0.00000000000000E+00  -4.26983688156561E-11  -1.97157221250816E-16  -3.70002875534620E-07  -3.70045574100593E-07
     -6.20361353449324E-14  -4.50000000000000E+01  -4.50000000000000E+01   0.00000000000000E+00  -4.37441532255640E-07
     -6.27985961379627E-15  -7.99269050761506E-07  -1.23671058929700E-06  -1.73098905489661E-13
      1.25886581689796E-09
      8.00000000000000E-01   8.00000000000000E-01   0.00000000000000E+00  -3.88000959229743E-12   1.60245969981478E-06
     -2.47281113462975E-11   1.60243109169384E-06   2.35202258901632E-13   0.00000000000000E+00   0.00000000000000E+00
      0.00000000000000E+00  -3.92830927633864E-11  -1.97156160200277E-16  -4.34943060014608E-07  -4.34982343304528E-07
     -6.20694966304703E-14  -4.50000000000000E+01  -4.50000000000000E+01   0.00000000000000E+00  -3.76225131294420E-07
     -6.28062782556102E-15  -7.91223610814261E-07  -1.16744874838931E-06  -1.73132762271162E-13
      1.38370374608604E-09
      8.00000000000000E-01   8.00000000000000E-01   0.00000000000000E+00  -9.44157176813943E-12   1.58355061519273E-06
     -1.97257493749600E-11   1.58352144787159E-06   2.35302872191909E-13   0.00000000000000E+00   0.00000000000000E+00
      0.00000000000000E+00  -3.10862055002948E-11  -1.97151887187974E-16  -5.18667388372965E-07  -5.18698474775617E-07
     -6.21288077145848E-14  -4.50000000000000E+01  -4.50000000000000E+01   0.00000000000000E+00  -2.85610069007714E-07
     -6.28156500346863E-15  -7.79212897806700E-07  -1.06482297309598E-06  -1.73174064477325E-13
      1.47733219297710E-09
      8.00000000000000E-01   8.00000000000000E-01   0.00000000000000E+00  -1.54576030679826E-11   1.55520850804472E-06
     -1.70423835666722E-11   1.55517600805809E-06   2.35377026744606E-13   0.00000000000000E+00   0.00000000000000E+00
      0.00000000000000E+00  -2.22480774722865E-11  -1.97144895080181E-16  -5.66032858798073E-07  -5.66055107072690E-07
     -6.21793504672627E-14  -4.50000000000000E+01  -4.50000000000000E+01   0.00000000000000E+00  -2.18871292378101E-07
     -6.28210088830216E-15  -7.70249602325192E-07  -9.89120900985394E-07  -1.73197676277345E-13
      1.61777486331368E-09
      8.00000000000000E-01   8.00000000000000E-01   0.00000000000000E+00  -2.70003966500704E-11   1.48092984134623E-06
     -1.40019017666468E-11   1.48088883904781E-06   2.35482722220786E-13   0.00000000000000E+00   0.00000000000000E+00
      0.00000000000000E+00  -5.03824554567667E-12  -1.97122796294724E-16  -6.02288765117223E-07  -6.02293803559892E-07
     -6.22611557989165E-14  -4.50000000000000E+01  -4.50000000000000E+01   0.00000000000000E+00  -1.21713601674934E-07
     -6.28264345065405E-15  -7.56881427530348E-07  -8.78595035487925E-07  -1.73221566421868E-13
      1.72310686606612E-09
      8.00000000000000E-01   8.00000000000000E-01   0.00000000000000E+00  -3.67104738748904E-11   1.39603896150422E-06
     -1.22481070972013E-11   1.39599000292324E-06   2.35554739292482E-13   0.00000000000000E+00   0.00000000000000E+00
      0.00000000000000E+00   9.87377788472913E-12  -1.97091955770047E-16  -5.96925819961508E-07  -5.96915946380715E-07
     -6.23240320052278E-14  -4.50000000000000E+01  -4.50000000000000E+01   0.00000000000000E+00  -5.21542033192044E-08
     -6.28285151385155E-15  -7.46919846940476E-07  -7.99074056542532E-07  -1.73230707287254E-13
      1.88110487019478E-09
      8.00000000000000E-01   8.00000000000000E-01   0.00000000000000E+00  -4.98969098096483E-11   1.22135575808107E-06
     -1.01679565220515E-11   1.22129569321474E-06   2.35644406861199E-13   0.00000000000000E+00   0.00000000000000E+00
      0.00000000000000E+00   3.14895559942854E-11  -1.97009717072580E-16  -5.33425740695667E-07  -5.33394251336682E-07
     -6.24131474891246E-14  -4.50000000000000E+01  -4.50000000000000E+01   0.00000000000000E+00   4.41958148958363E-08
     -6.28286551041717E-15  -7.32097250491024E-07  -6.87901441878053E-07  -1.73231259372074E-13
      1.99960337329127E-09
      8.00000000000000E-01   8.00000000000000E-01   0.00000000000000E+00  -5.65464892637791E-11   1.05997927786476E-06
     -8.93158873129673E-12   1.05991379978676E-06   2.35693153444320E-13   0.00000000000000E+00   0.00000000000000E+00
      0.00000000000000E+00   4.41240534327490E-11  -1.96911154427275E-16  -4.47183576541379E-07  -4.47139452684858E-07
     -6.24709709304744E-14  -4.50000000000000E+01  -4.50000000000000E+01   0.00000000000000E+00   1.08313271237210E-07
     -6.28266101226254E-15  -7.21087612056456E-07  -6.12774347101906E-07  -1.73222182513846E-13
      2.17735112793601E-09
      8.00000000000000E-01   8.00000000000000E-01   0.00000000000000E+00  -5.83639912945628E-11   7.97227326105296E-07
     -7.44912442096005E-12   7.97161512989581E-07   2.35731025503686E-13   0.00000000000000E+00   0.00000000000000E+00
      0.00000000000000E+00   5.27900916113515E-11  -1.96692484655962E-16  -2.80854428225320E-07  -2.80801638330401E-07
     -6.25353698600703E-14  -4.50000000000000E+01  -4.50000000000000E+01   0.00000000000000E+00   1.88421567272956E-07
     -6.28206172883346E-15  -7.04781435650071E-07  -5.16359874659177E-07  -1.73195655643616E-13
      2.31066194391957E-09
      8.00000000000000E-01   8.00000000000000E-01   0.00000000000000E+00  -5.33221496026932E-11   6.06393913789951E-07
     -6.56430692683408E-12   6.06334027333422E-07   2.35731076500793E-13   0.00000000000000E+00   0.00000000000000E+00
      0.00000000000000E+00   5.06862287569219E-11  -1.96473097215437E-16  -1.48777519358998E-07  -1.48726833326714E-07
     -6.25637180516182E-14  -4.50000000000000E+01  -4.50000000000000E+01   0.00000000000000E+00   2.35133061278489E-07
     -6.28142183225120E-15  -6.92740249003775E-07  -4.57607194006709E-07  -1.73167358449175E-13
      2.41064505590723E-09
      8.00000000000000E-01   8.00000000000000E-01   0.00000000000000E+00  -4.68563090645754E-11   4.78311509930111E-07
     -5.99870127851999E-12   4.78258654919768E-07   2.35716298001937E-13   0.00000000000000E+00   0.00000000000000E+00
      0.00000000000000E+00   4.51964593683248E-11  -1.96281941929479E-16  -5.74055736818252E-08  -5.73603774187388E-08
     -6.25738634943965E-14  -4.50000000000000E+01  -4.50000000000000E+01   0.00000000000000E+00   2.62929708283154E-07
     -6.28085797606437E-15  -6.83827979503324E-07  -4.20898277501028E-07  -1.73142434507542E-13
      2.56061972388873E-09
      8.00000000000000E-01   8.00000000000000E-01   0.00000000000000E+00  -3.52784607003365E-11   3.20872985118759E-07
     -5.27236822011083E-12   3.20832434289839E-07   2.35674304009214E-13   0.00000000000000E+00   0.00000000000000E+00
      0.00000000000000E+00   3.36554079759161E-11  -1.95966587814151E-16   5.51880697247254E-08   5.52217249367347E-08
     -6.25737468004855E-14  -4.50000000000000E+01  -4.50000000000000E+01   0.00000000000000E+00   2.94603329652317E-07
     -6.27991025241622E-15  -6.70657482598980E-07  -3.76054159226574E-07  -1.73100557208730E-13
      2.67310072487486E-09
      8.00000000000000E-01   8.00000000000000E-01   0.00000000000000E+00  -2.66570919039725E-11   2.31974908426604E-07
     -4.80483875906555E-12   2.31943446495941E-07   2.35630410003237E-13   0.00000000000000E+00   0.00000000000000E+00
      0.00000000000000E+00   2.43711136865250E-11  -1.95718886396667E-16   1.17064840492345E-07   1.17089211410313E-07
     -6.25639847481143E-14  -4.50000000000000E+01  -4.50000000000000E+01   0.00000000000000E+00   3.11893348722616E-07
     -6.27913757431526E-15  -6.60926000349734E-07  -3.49032657906255E-07  -1.73066425255124E-13
      2.84182222635405E-09
      8.00000000000000E-01   8.00000000000000E-01   0.00000000000000E+00  -1.60021313022870E-11   1.40521523967638E-07
     -4.19650710609561E-12   1.40501325329230E-07   2.35551334173490E-13   0.00000000000000E+00   0.00000000000000E+00
      0.00000000000000E+00   1.24241999044176E-11  -1.95352778920221E-16   1.75431680114110E-07   1.75444104118661E-07
     -6.25391565054136E-14  -4.50000000000000E+01  -4.50000000000000E+01   0.00000000000000E+00   3.30546091769193E-07
     -6.27790915842853E-15  -6.46491514939176E-07  -3.15945429447892E-07  -1.73012177668076E-13
      2.96836335246344E-09
      8.00000000000000E-01   8.00000000000000E-01   0.00000000000000E+00  -1.02935665648332E-11   9.81209671023498E-08
     -3.79852383408167E-12   9.81068750119509E-08   2.35485348736005E-13   0.00000000000000E+00   0.00000000000000E+00
      0.00000000000000E+00   5.82892900593773E-12  -1.95094978257380E-16   1.97030276953975E-07   1.97036105687886E-07
     -6.25156454162591E-14  -4.50000000000000E+01  -4.50000000000000E+01   0.00000000000000E+00   3.40550699805546E-07
     -6.27694706983160E-15  -6.35693674228435E-07  -2.95142980699836E-07  -1.72969703319746E-13
      3.15817504162752E-09
      8.00000000000000E-01   8.00000000000000E-01   0.00000000000000E+00  -5.01991348920183E-12   6.13682255185386E-08
     -3.27349144663297E-12   6.13599321136028E-08   2.35381444361571E-13   0.00000000000000E+00   0.00000000000000E+00
      0.00000000000000E+00  -3.70839409178940E-13  -1.94751650472248E-16   2.06129779519539E-07   2.06129408485378E-07
     -6.24774688572167E-14  -4.50000000000000E+01  -4.50000000000000E+01   0.00000000000000E+00   3.51690776081180E-07
     -6.27545784697253E-15  -6.19180110404702E-07  -2.67489340598980E-07  -1.72903975504353E-13
      3.30053380850059E-09
      8.00000000000000E-01   8.00000000000000E-01   0.00000000000000E+00  -2.94358709277710E-12   4.68346533065799E-08
     -2.92723099454961E-12   4.68287824884926E-08   2.35302094284656E-13   0.00000000000000E+00   0.00000000000000E+00
      0.00000000000000E+00  -2.83541273265971E-12  -1.94532228347177E-16   2.01535605227749E-07   2.01532769620484E-07
     -6.24486321016116E-14  -4.50000000000000E+01  -4.50000000000000E+01   0.00000000000000E+00   3.57829809475723E-07
     -6.27431302836130E-15  -6.06191355310387E-07  -2.48361552108977E-07  -1.72853462183045E-13
      3.51407195881018E-09
      8.00000000000000E-01   8.00000000000000E-01   0.00000000000000E+00  -1.45631036404617E-12   3.48314523129460E-08
     -2.47163776410260E-12   3.48275243648179E-08   2.35183909867123E-13   0.00000000000000E+00   0.00000000000000E+00
      0.00000000000000E+00  -4.55445453748564E-12  -1.94261897988746E-16   1.86140123482596E-07   1.86135568833796E-07
     -6.24075339328989E-14  -4.50000000000000E+01  -4.50000000000000E+01   0.00000000000000E+00   3.63803488739529E-07
     -6.27256548941059E-15  -5.84766575665577E-07  -2.20963093198614E-07  -1.72776375934223E-13
      3.67422557154238E-09
      8.00000000000000E-01   8.00000000000000E-01   0.00000000000000E+00  -1.00575292096677E-12   2.96576748345130E-08
     -2.17455117082544E-12   2.96544945304212E-08   2.35097134705002E-13   0.00000000000000E+00   0.00000000000000E+00
      0.00000000000000E+00  -4.99197235900122E-12  -1.94099840936281E-16   1.71479559186436E-07   1.71474567019977E-07
     -6.23791639984770E-14  -4.50000000000000E+01  -4.50000000000000E+01   0.00000000000000E+00   3.65310210257982E-07
     -6.27124108730694E-15  -5.66439265537140E-07  -2.01129061550399E-07  -1.72717970706524E-13
      3.91445599064068E-09
      8.00000000000000E-01   8.00000000000000E-01   0.00000000000000E+00  -7.16109574738121E-13   2.42023531992010E-08
     -1.79108221406440E-12   2.41998460074122E-08   2.34971772622323E-13   0.00000000000000E+00   0.00000000000000E+00
      0.00000000000000E+00  -5.08512230028198E-12  -1.93908787195076E-16   1.48284981869499E-07   1.48279896553290E-07
     -6.23411759295956E-14  -4.50000000000000E+01  -4.50000000000000E+01   0.00000000000000E+00   3.61402120500119E-07
     -6.26925924252905E-15  -5.33881856791561E-07  -1.72479742560702E-07  -1.72630596692728E-13
      4.09462880496440E-09
      8.00000000000000E-01   8.00000000000000E-01   0.00000000000000E+00  -6.01800382219834E-13   2.09880078941851E-08
     -1.54691993617922E-12   2.09858591738667E-08   2.34882554357409E-13   0.00000000000000E+00   0.00000000000000E+00
      0.00000000000000E+00  -4.92691711270210E-12  -1.93798859591266E-16   1.31052538681884E-07   1.31047611570973E-07
     -6.23163374076813E-14  -4.50000000000000E+01  -4.50000000000000E+01   0.00000000000000E+00   3.52793124926134E-07
     -6.26779854949995E-15  -5.04826589403175E-07  -1.52033470744840E-07  -1.72566216949727E-13
      4.22975841570719E-09
      8.00000000000000E-01   8.00000000000000E-01   0.00000000000000E+00  -5.66745307012264E-13   1.88416680672169E-08
     -1.38527957587039E-12   1.88397160423341E-08   2.34818912907393E-13   0.00000000000000E+00   0.00000000000000E+00