DF-ISE text

Info {
  version   = 1.0
  type      = xyplot
  datasets  = [
    "time"
    "Ntop OuterVoltage" "Ntop InnerVoltage" "Ntop QuasiFermiPotential" "Ntop DisplacementCurrent" "Ntop eCurrent"
    "Ntop hCurrent" "Ntop TotalCurrent" "Ntop Charge" "Ptop OuterVoltage" "Ptop InnerVoltage"
    "Ptop QuasiFermiPotential" "Ptop DisplacementCurrent" "Ptop eCurrent" "Ptop hCurrent" "Ptop TotalCurrent"
    "Ptop Charge" "Pbot OuterVoltage" "Pbot InnerVoltage" "Pbot QuasiFermiPotential" "Pbot DisplacementCurrent"
    "Pbot eCurrent" "Pbot hCurrent" "Pbot TotalCurrent" "Pbot Charge" ]
  functions = [
    Time
    OuterVoltage InnerVoltage QuasiFermiPotential DisplacementCurrent eCurrent
    hCurrent TotalCurrent Charge OuterVoltage InnerVoltage
    QuasiFermiPotential DisplacementCurrent eCurrent hCurrent TotalCurrent
    Charge OuterVoltage InnerVoltage QuasiFermiPotential DisplacementCurrent
    eCurrent hCurrent TotalCurrent Charge ]
}

Data {
      5.00000000000000E-13
      8.00000000000000E-01   8.00000000000000E-01   0.00000000000000E+00   7.03639360874567E-15   7.71130868715855E-12
     -7.31577419857684E-12   4.02570882190451E-13   1.67014632698006E-13   0.00000000000000E+00   0.00000000000000E+00
      0.00000000000000E+00  -1.15067331104632E-13  -1.97161987554633E-16   6.33017157893829E-11   6.31864512962907E-11
     -7.08437734486168E-14  -1.20000000000000E+01  -1.20000000000000E+01   0.00000000000000E+00  -2.72569951545277E-13
      1.45917227547951E-11  -7.79081749817310E-11  -6.35890221784812E-11  -9.61708592493886E-14
      1.25000000000000E-12
      8.00000000000000E-01   8.00000000000000E-01   0.00000000000000E+00   8.67567545885443E-14   3.52352868344967E-11
     -3.37572288810156E-11   1.56481470806964E-12   1.67014632698371E-13   0.00000000000000E+00   0.00000000000000E+00
      0.00000000000000E+00  -8.42368320838264E-14  -1.97161987553316E-16   6.39549985689713E-11   6.38705645748999E-11
     -7.08437734482839E-14  -1.20000000000000E+01  -1.20000000000000E+01   0.00000000000000E+00  -1.66080388250102E-12
      6.73308228244107E-11  -1.31105398224879E-10  -6.54353792829696E-11  -9.61708592500859E-14
      2.37500000000000E-12
      8.00000000000000E-01   8.00000000000000E-01   0.00000000000000E+00   6.45560693969941E-13   2.93998483292966E-10
     -2.79310684337569E-10   1.53333596493663E-11   1.67014632703686E-13   0.00000000000000E+00   0.00000000000000E+00
      0.00000000000000E+00   6.25230828503789E-13  -1.97161987538471E-16   7.13142931327550E-11   7.19393267992713E-11
     -7.08437734432279E-14  -1.20000000000000E+01  -1.20000000000000E+01   0.00000000000000E+00  -1.80782787263425E-11
      5.56952932810884E-10  -6.26147340533179E-10  -8.72726864486373E-11  -9.61708592604573E-14
      4.06250000000000E-12
      8.00000000000000E-01   8.00000000000000E-01   0.00000000000000E+00   9.72192267885866E-12   4.54529228050384E-09
     -4.23720781523943E-09   3.17806387943271E-10   1.67014632860606E-13   0.00000000000000E+00   0.00000000000000E+00
      0.00000000000000E+00   8.73539089988019E-12  -1.97161987188694E-16   2.44533653767081E-10   2.53268847504974E-10
     -7.08437732894192E-14  -1.20000000000000E+01  -1.20000000000000E+01   0.00000000000000E+00  -3.81999628531701E-10
      8.44466487982753E-09  -8.63374048674407E-09  -5.71075235448245E-10  -9.61708595711864E-14
      6.59375000000000E-12
      8.00000000000000E-01   8.00000000000000E-01   0.00000000000000E+00   1.93539726522118E-10   9.38708984945128E-08
     -8.47967081928164E-08   9.26773002821853E-09   1.67014639573168E-13   0.00000000000000E+00   0.00000000000000E+00
      0.00000000000000E+00   1.77065775146455E-10  -1.97161976437922E-16   5.56198410394472E-09   5.73904968192920E-09
     -7.08437665118994E-14  -1.20000000000000E+01  -1.20000000000000E+01   0.00000000000000E+00  -1.12475560566085E-08
      1.68848891542793E-07  -1.72608115196333E-07  -1.50067797101477E-08  -9.61708730612684E-14
      1.03906250000000E-11
      8.00000000000000E-01   8.00000000000000E-01   0.00000000000000E+00   1.61906951721691E-09   8.29501324479559E-07
     -7.05782752738904E-07   1.25337641257872E-07   1.67014782802607E-13   0.00000000000000E+00   0.00000000000000E+00
      0.00000000000000E+00   1.46489773779543E-09  -1.97161834380175E-16   7.57226079511797E-08   7.71875054918133E-08
     -7.08436202546551E-14  -1.20000000000000E+01  -1.20000000000000E+01   0.00000000000000E+00  -1.52442156268266E-07
      1.40296282702946E-06  -1.45304581751088E-06  -2.02525146749685E-07  -9.61711625479521E-14
      1.60859375000000E-11
      8.00000000000000E-01   8.00000000000000E-01   0.00000000000000E+00   9.50438789672982E-10   6.86013084437959E-07
     -3.77679643020708E-07   3.09283880206924E-07   1.67015541738320E-13   0.00000000000000E+00   0.00000000000000E+00
      0.00000000000000E+00   6.56484696723631E-10  -1.97161621649567E-16   1.80280097834547E-07   1.80936582334109E-07
     -7.08428699123477E-14  -1.20000000000000E+01  -1.20000000000000E+01   0.00000000000000E+00  -3.68580034267162E-07
      7.39264969285330E-07  -8.60905397559202E-07  -4.90220462541034E-07  -9.61726718259724E-14
      2.46289062500000E-11
      8.00000000000000E-01   8.00000000000000E-01   0.00000000000000E+00   1.32774116739912E-10   4.15622227549506E-07
     -9.43392523243420E-09   4.06321076433812E-07   1.67017451003348E-13   0.00000000000000E+00   0.00000000000000E+00
      0.00000000000000E+00  -1.53172602686018E-10  -1.97161572204390E-16   2.03830560899866E-07   2.03677388100018E-07
     -7.08411943840284E-14  -1.20000000000000E+01  -1.20000000000000E+01   0.00000000000000E+00  -4.55445406290021E-07
      1.36984700380594E-09  -1.55922905247613E-07  -6.09998464533828E-07  -9.61762566193197E-14
      3.74433593750000E-11
      8.00000000000000E-01   8.00000000000000E-01   0.00000000000000E+00   9.77096149126780E-11   4.48991903392091E-07
     -7.95345135999764E-09   4.41136161647006E-07   1.67020865422571E-13   0.00000000000000E+00   0.00000000000000E+00
      0.00000000000000E+00  -1.18753671415981E-10  -1.97161635832836E-16   1.71431315714887E-07   1.71312561846309E-07
     -7.08387997641823E-14  -1.20000000000000E+01  -1.20000000000000E+01   0.00000000000000E+00  -4.50946390165110E-07
     -4.04352038312381E-15  -1.61502329284687E-07  -6.12448723493317E-07  -9.61820656583882E-14
      5.66650390625000E-11
      8.00000000000000E-01   8.00000000000000E-01   0.00000000000000E+00   6.88900668546512E-11   4.84921265848544E-07
     -6.88762100657934E-09   4.78102534908819E-07   1.67026528844309E-13   0.00000000000000E+00   0.00000000000000E+00
      0.00000000000000E+00  -8.97248745230134E-11  -1.97161710297609E-16   1.33580797197053E-07   1.33491072125368E-07
     -7.08358861885269E-14  -1.20000000000000E+01  -1.20000000000000E+01   0.00000000000000E+00  -4.41373755474083E-07
     -4.08854949087232E-15  -1.70219847471555E-07  -6.11593607034188E-07  -9.61906426557814E-14
      8.54975585937500E-11
      8.00000000000000E-01   8.00000000000000E-01   0.00000000000000E+00   4.20797720665941E-11   5.19435203155235E-07
     -5.54896734502443E-09   5.13928315582277E-07   1.67035800057907E-13   0.00000000000000E+00   0.00000000000000E+00
      0.00000000000000E+00  -6.21391669916956E-11  -1.97161791760076E-16   9.24137464640777E-08   9.23516070999242E-08
     -7.08326591770085E-14  -1.20000000000000E+01  -1.20000000000000E+01   0.00000000000000E+00  -4.25502904054212E-07
     -4.11836181557267E-15  -1.80777014509628E-07  -6.06279922682202E-07  -9.62031408808991E-14
      1.28746337890625E-10
      8.00000000000000E-01   8.00000000000000E-01   0.00000000000000E+00   1.98346777395444E-11   5.46445233729261E-07
     -4.01071906321969E-09   5.42454349343781E-07   1.67050614515126E-13   0.00000000000000E+00   0.00000000000000E+00
      0.00000000000000E+00  -3.87652242235819E-11  -1.97161874190233E-16   5.14904504537776E-08   5.14516850323921E-08
     -7.08295973144412E-14  -1.20000000000000E+01  -1.20000000000000E+01   0.00000000000000E+00  -4.01220323937531E-07
     -4.13490455301217E-15  -1.92685706303736E-07  -5.93906034376172E-07  -9.62210172006852E-14
      1.93619506835937E-10
      8.00000000000000E-01   8.00000000000000E-01   0.00000000000000E+00   4.16222577154857E-12   5.59187871590037E-07
     -2.46266177961828E-09   5.56729372036190E-07   1.67073442171956E-13   0.00000000000000E+00   0.00000000000000E+00
      0.00000000000000E+00  -2.21337834992310E-11  -1.97161951649685E-16   1.46798091947334E-08   1.46576752140723E-08
     -7.08275207385269E-14  -1.20000000000000E+01  -1.20000000000000E+01   0.00000000000000E+00  -3.66841138758402E-07
     -4.14189408132981E-15  -2.04545904349966E-07  -5.71387047250263E-07  -9.62459214334286E-14
      2.42274383544922E-10
      8.00000000000000E-01   8.00000000000000E-01   0.00000000000000E+00  -8.86173866758954E-13   5.58295070582696E-07
     -1.71570586425800E-09   5.56578478544571E-07   1.67090451896660E-13   0.00000000000000E+00   0.00000000000000E+00
      0.00000000000000E+00  -1.68431422423015E-11  -1.97161991914020E-16  -3.23767363223660E-09  -3.25451697164090E-09
     -7.08272603843065E-14  -1.20000000000000E+01  -1.20000000000000E+01   0.00000000000000E+00  -3.43212426046652E-07
     -4.14336149936862E-15  -2.10111531382915E-07  -5.53323961572929E-07  -9.62631915123542E-14
      3.15256698608398E-10
      8.00000000000000E-01   8.00000000000000E-01   0.00000000000000E+00  -4.11132186305685E-12   5.50978007361136E-07
     -1.00022442212797E-09   5.49973671617145E-07   1.67115328154992E-13   0.00000000000000E+00   0.00000000000000E+00
      0.00000000000000E+00  -1.35886766005577E-11  -1.97162042000095E-16  -2.42020197517837E-08  -2.42156086255463E-08
     -7.08282826239668E-14  -1.20000000000000E+01  -1.20000000000000E+01   0.00000000000000E+00  -3.10747069949412E-07
     -4.14447611600790E-15  -2.15010988897709E-07  -5.25758062991597E-07  -9.62870455310258E-14
      3.69993434906006E-10
      8.00000000000000E-01   8.00000000000000E-01   0.00000000000000E+00  -4.90657013371852E-12   5.43684211555733E-07
     -6.73673216601492E-10   5.43005631768998E-07   1.67133424647608E-13   0.00000000000000E+00   0.00000000000000E+00
      0.00000000000000E+00  -1.28231162794840E-11  -1.97162076423659E-16  -3.79521664250086E-08  -3.79649897384502E-08
     -7.08299887456438E-14  -1.20000000000000E+01  -1.20000000000000E+01   0.00000000000000E+00  -2.88243674637714E-07
     -4.14506509991753E-15  -2.16796963247768E-07  -5.05040642030547E-07  -9.63034359019641E-14
      4.52098539352417E-10
      8.00000000000000E-01   8.00000000000000E-01   0.00000000000000E+00  -5.33544253834091E-12   5.32189865553079E-07
     -3.76267021047229E-10   5.31808263089494E-07   1.67159710258363E-13   0.00000000000000E+00   0.00000000000000E+00
      0.00000000000000E+00  -1.23470720050322E-11  -1.97162126860006E-16  -5.76219237402530E-08  -5.76342710094201E-08
     -7.08339162799960E-14  -1.20000000000000E+01  -1.20000000000000E+01   0.00000000000000E+00  -2.56552383248672E-07
     -4.14583673105490E-15  -2.17621604685565E-07  -4.74173992080074E-07  -9.63257939783670E-14
      5.13677367687225E-10
      8.00000000000000E-01   8.00000000000000E-01   0.00000000000000E+00  -5.59061334935105E-12   5.23370432675679E-07
     -2.48009653126229E-10   5.23116832409203E-07   1.67178797409357E-13   0.00000000000000E+00   0.00000000000000E+00
      0.00000000000000E+00  -1.19345262717863E-11  -1.97162163913887E-16  -7.18585864839814E-08  -7.18705212074154E-08
     -7.08379025713692E-14  -1.20000000000000E+01  -1.20000000000000E+01   0.00000000000000E+00  -2.33972116351704E-07
     -4.14635315099596E-15  -2.17274190703731E-07  -4.51246311201788E-07  -9.63408948379875E-14
      5.59861488938332E-10
      8.00000000000000E-01   8.00000000000000E-01   0.00000000000000E+00  -5.91346293953688E-12   5.16498023567751E-07
     -1.83820978608571E-10   5.16308289126203E-07   1.67192776154384E-13   0.00000000000000E+00   0.00000000000000E+00
      0.00000000000000E+00  -1.14155030408580E-11  -1.97162190847652E-16  -8.21142908828065E-08  -8.21257065830096E-08
     -7.08414562415997E-14  -1.20000000000000E+01  -1.20000000000000E+01   0.00000000000000E+00  -2.17514413084710E-07
     -4.14670949684928E-15  -2.16668165311774E-07  -4.34182582543194E-07  -9.63513199127850E-14
      6.29137670814991E-10
      8.00000000000000E-01   8.00000000000000E-01   0.00000000000000E+00  -6.72638171358560E-12   5.05263805060911E-07
     -1.19763872429136E-10   5.05137314806768E-07   1.67213186995855E-13   0.00000000000000E+00   0.00000000000000E+00
      0.00000000000000E+00  -1.01674446698148E-11  -1.97162228662069E-16  -9.63336926872089E-08  -9.63438603290409E-08
     -7.08476356929512E-14  -1.20000000000000E+01  -1.20000000000000E+01   0.00000000000000E+00  -1.93395826976996E-07
     -4.14719592614992E-15  -2.15397623353535E-07  -4.08793454477727E-07  -9.63655513029041E-14
      7.33051943629980E-10
      8.00000000000000E-01   8.00000000000000E-01   0.00000000000000E+00  -8.76563758357789E-12   4.84716749456291E-07
     -6.67834293989944E-11   4.84641200389308E-07   1.67242361199200E-13   0.00000000000000E+00   0.00000000000000E+00
      0.00000000000000E+00  -7.12247952991668E-12  -1.97162275759697E-16  -1.13448986881075E-07  -1.13456109557767E-07
     -7.08585472546271E-14  -1.20000000000000E+01  -1.20000000000000E+01   0.00000000000000E+00  -1.58185144871780E-07
     -4.14782016220470E-15  -2.12999941811941E-07  -3.71185090831541E-07  -9.63838139445731E-14
      8.10987648241222E-10
      8.00000000000000E-01   8.00000000000000E-01   0.00000000000000E+00  -1.08613394468849E-11   4.65125213892939E-07
     -4.60925183597713E-11   4.65068260035132E-07   1.67262844059839E-13   0.00000000000000E+00   0.00000000000000E+00
      0.00000000000000E+00  -4.00734457596887E-12  -1.97162300405745E-16  -1.21653036942032E-07  -1.21657044483771E-07
     -7.08677076024663E-14  -1.20000000000000E+01  -1.20000000000000E+01   0.00000000000000E+00  -1.32421252229865E-07
     -4.14820720127416E-15  -2.10989959173289E-07  -3.43411215551362E-07  -9.63951364573726E-14
      9.27891205158085E-10
      8.00000000000000E-01   8.00000000000000E-01   0.00000000000000E+00  -1.43998654827385E-11   4.27251671815345E-07
     -2.92122116764617E-11   4.27208059738185E-07   1.67290537413406E-13   0.00000000000000E+00   0.00000000000000E+00
      0.00000000000000E+00   1.41057886785285E-12  -1.97162315372237E-16  -1.24441282446610E-07  -1.24439872064905E-07
     -7.08821206154655E-14  -1.20000000000000E+01  -1.20000000000000E+01   0.00000000000000E+00  -9.49163573013722E-08
     -4.14866120825570E-15  -2.07851826223247E-07  -3.02768187673280E-07  -9.64084167979410E-14
      1.01556887284573E-09
      8.00000000000000E-01   8.00000000000000E-01   0.00000000000000E+00  -1.68644162085313E-11   3.92074291258694E-07
     -2.25465032163504E-11   3.92034880339269E-07   1.67308323322491E-13   0.00000000000000E+00   0.00000000000000E+00
      0.00000000000000E+00   5.46699961465259E-12  -1.97162308258953E-16  -1.18579533607460E-07  -1.18574066805008E-07
     -7.08927700162352E-14  -1.20000000000000E+01  -1.20000000000000E+01   0.00000000000000E+00  -6.79822375660472E-08
     -4.14890522954747E-15  -2.05478571819308E-07  -2.73460813534260E-07  -9.64155533062557E-14
      1.14708537437720E-09
      8.00000000000000E-01   8.00000000000000E-01   0.00000000000000E+00  -1.92543638602927E-11   3.30986434540025E-07
     -1.68247948672474E-11   3.30950355381298E-07   1.67329063533213E-13   0.00000000000000E+00   0.00000000000000E+00
      0.00000000000000E+00   1.02874205923078E-11  -1.97162272056935E-16  -9.85232246447492E-08  -9.85129374213191E-08
     -7.09070601038769E-14  -1.20000000000000E+01  -1.20000000000000E+01   0.00000000000000E+00  -3.04574954081566E-08
     -4.14912589805940E-15  -2.01979918402695E-07  -2.32437417959978E-07  -9.64220034293365E-14
      1.24572275052581E-09
      8.00000000000000E-01   8.00000000000000E-01   0.00000000000000E+00  -1.96227961742285E-11   2.81835346786922E-07
     -1.43279577639858E-11   2.81801396032984E-07   1.67339446948979E-13   0.00000000000000E+00   0.00000000000000E+00
      0.00000000000000E+00   1.23483528454828E-11  -1.97162231083885E-16  -7.71049697620637E-08  -7.70926216063805E-08
     -7.09156936712213E-14  -1.20000000000000E+01  -1.20000000000000E+01   0.00000000000000E+00  -5.27414767475775E-09
     -4.14918591266765E-15  -1.99434622602659E-07  -2.04708774426603E-07  -9.64237532777576E-14
      1.39367881474871E-09
      8.00000000000000E-01   8.00000000000000E-01   0.00000000000000E+00  -1.79035020419260E-11   2.10593993808483E-07
     -1.18915744077109E-11   2.10564198732033E-07   1.67346519154683E-13   0.00000000000000E+00   0.00000000000000E+00
      0.00000000000000E+00   1.27048544250786E-11  -1.97162163719143E-16  -4.14474579214499E-08  -4.14347532641870E-08
     -7.09243934449096E-14  -1.20000000000000E+01  -1.20000000000000E+01   0.00000000000000E+00   2.66390461737417E-08
     -4.14913067023984E-15  -1.95768487492457E-07  -1.69129445467846E-07  -9.64221257097729E-14
      1.50464586291589E-09
      8.00000000000000E-01   8.00000000000000E-01   0.00000000000000E+00  -1.53246949377770E-11   1.63506496220358E-07
     -1.06424592401270E-11   1.63480529066180E-07   1.67345601364711E-13   0.00000000000000E+00   0.00000000000000E+00
      0.00000000000000E+00   1.12587096628152E-11  -1.97162117498621E-16  -1.60559422473374E-08  -1.60446837348367E-08
     -7.09275087185953E-14  -1.20000000000000E+01  -1.20000000000000E+01   0.00000000000000E+00   4.56938174452662E-08
     -4.14899316780289E-15  -1.93129658627617E-07  -1.47435845331344E-07  -9.64180926461150E-14
      1.67109643516666E-09
      8.00000000000000E-01   8.00000000000000E-01   0.00000000000000E+00  -1.07971190228567E-11   1.08118796711586E-07
     -9.23699397881335E-12   1.08098762598584E-07   1.67336142127092E-13   0.00000000000000E+00   0.00000000000000E+00
      0.00000000000000E+00   7.80639063933969E-12  -1.97162062866340E-16   1.41938846299379E-08   1.42016908234151E-08
     -7.09274835825674E-14  -1.20000000000000E+01  -1.20000000000000E+01   0.00000000000000E+00   6.69725749208968E-08
     -4.14867130494115E-15  -1.89273024194225E-07  -1.22300453421999E-07  -9.64086585445242E-14
      1.79593436435473E-09
      8.00000000000000E-01   8.00000000000000E-01   0.00000000000000E+00  -7.66090360963529E-12   7.88431069808722E-08
     -8.41121016722475E-12   7.88270348670953E-08   1.67324224778208E-13   0.00000000000000E+00   0.00000000000000E+00
      0.00000000000000E+00   5.09937485865588E-12  -1.97162031021491E-16   2.94593763356550E-08   2.94644755133516E-08
     -7.09246387366914E-14  -1.20000000000000E+01  -1.20000000000000E+01   0.00000000000000E+00   7.80735312023797E-08
     -4.14836169995958E-15  -1.86365037434465E-07  -1.08291510380447E-07  -9.63995860415153E-14
      1.98319125813684E-09
      8.00000000000000E-01   8.00000000000000E-01   0.00000000000000E+00  -4.18614896713920E-12   5.08728593299999E-08
     -7.38500938582779E-12   5.08612881716469E-08   1.67301627277468E-13   0.00000000000000E+00   0.00000000000000E+00
      0.00000000000000E+00   1.91876559378646E-12  -1.97161985847817E-16   4.17247601604910E-08   4.17266787289228E-08
     -7.09177376995696E-14  -1.20000000000000E+01  -1.20000000000000E+01   0.00000000000000E+00   8.90963757415277E-08
     -4.14782599817290E-15  -1.81684338494271E-07  -9.25879669005697E-08  -9.63838895778972E-14
      2.12363392847343E-09
      8.00000000000000E-01   8.00000000000000E-01   0.00000000000000E+00  -2.57124411357702E-12   3.88443883278191E-08
     -6.73110023019015E-12   3.88350859834754E-08   1.67282526754180E-13   0.00000000000000E+00   0.00000000000000E+00
      0.00000000000000E+00   3.85859168204404E-13  -1.97161947843191E-16   4.47061728610559E-08   4.47065585230622E-08
     -7.09115174802086E-14  -1.20000000000000E+01  -1.20000000000000E+01   0.00000000000000E+00   9.41416383388773E-08
     -4.14738639656542E-15  -1.77683278698029E-07  -8.35416445065376E-08  -9.63710092739713E-14
      2.33429793397831E-09
      8.00000000000000E-01   8.00000000000000E-01   0.00000000000000E+00  -1.28166652660864E-12   2.86347228061600E-08
     -5.87634220751141E-12   2.86275647974259E-08   1.67252681490709E-13   0.00000000000000E+00   0.00000000000000E+00
      0.00000000000000E+00  -8.35730430879321E-13  -1.97161883056538E-16   4.36145551972636E-08   4.36137192696708E-08
     -7.09019592865249E-14  -1.20000000000000E+01  -1.20000000000000E+01   0.00000000000000E+00   9.81389861622349E-08
     -4.14669401748928E-15  -1.70380266082637E-07  -7.22412840670965E-08  -9.63507222041832E-14
      2.49229593810696E-09
      8.00000000000000E-01   8.00000000000000E-01   0.00000000000000E+00  -8.51298476821931E-13   2.43106135586638E-08
     -5.31365273421456E-12   2.43044486074527E-08   1.67230283191748E-13   0.00000000000000E+00   0.00000000000000E+00
      0.00000000000000E+00  -1.20781452220364E-12  -1.97161833818598E-16   4.04933929485516E-08   4.04921849368675E-08
     -7.08951321039627E-14  -1.20000000000000E+01  -1.20000000000000E+01   0.00000000000000E+00   9.88088619134093E-08
     -4.14616260663005E-15  -1.63605491311567E-07  -6.47966335443202E-08  -9.63351510877850E-14
      2.72929294429995E-09
      8.00000000000000E-01   8.00000000000000E-01   0.00000000000000E+00  -5.65740286188812E-13   1.99880492661525E-08
     -4.56977810866873E-12   1.99829137477577E-08   1.67197915538363E-13   0.00000000000000E+00   0.00000000000000E+00
      0.00000000000000E+00  -1.36092598127930E-12  -1.97161772526895E-16   3.46275814880077E-08   3.46262203648646E-08
     -7.08859455676310E-14  -1.20000000000000E+01  -1.20000000000000E+01   0.00000000000000E+00   9.64850985900592E-08
     -4.14537150621408E-15  -1.51094228557310E-07  -5.46091341126224E-08  -9.63119699707323E-14
      2.90704069894469E-09
      8.00000000000000E-01   8.00000000000000E-01   0.00000000000000E+00  -4.71978923681024E-13   1.75750068782073E-08
     -4.08031867629926E-12   1.75704545806073E-08   1.67175156759797E-13   0.00000000000000E+00   0.00000000000000E+00
      0.00000000000000E+00  -1.31874389834739E-12  -1.97161741746610E-16   3.00756705491241E-08   3.00743516080640E-08
     -7.08799808883985E-14  -1.20000000000000E+01  -1.20000000000000E+01   0.00000000000000E+00   9.23156788865925E-08
     -4.14479838371512E-15  -1.39960480930465E-07  -4.76448061886712E-08  -9.62951758713986E-14
      3.17366233091180E-09
      8.00000000000000E-01   8.00000000000000E-01   0.00000000000000E+00  -3.85539443149346E-13   1.45774405381461E-08
     -3.44002220196313E-12   1.45736149765010E-08   1.67144274241881E-13   0.00000000000000E+00   0.00000000000000E+00
      0.00000000000000E+00  -1.16076539437747E-12  -1.97161720896698E-16   2.37561715531011E-08   2.37550105905450E-08
     -7.08724921474050E-14  -1.20000000000000E+01  -1.20000000000000E+01   0.00000000000000E+00   8.28932907068434E-08
     -4.14400003013086E-15  -1.21221912129889E-07  -3.83286255670458E-08  -9.62717820944763E-14
      3.37362855488714E-09
      8.00000000000000E-01   8.00000000000000E-01   0.00000000000000E+00  -3.36716339942067E-13   1.26771542399608E-08
     -3.02524446207902E-12   1.26737922791588E-08   1.67124007390926E-13   0.00000000000000E+00   0.00000000000000E+00
      0.00000000000000E+00  -1.01039592315064E-12  -1.97161721314029E-16   1.96121869111775E-08   1.96111763180926E-08
     -7.08679267398901E-14  -1.20000000000000E+01  -1.20000000000000E+01   0.00000000000000E+00   7.40611735793245E-08
     -4.14346417806440E-15  -1.06346138033112E-07  -3.22849685972514E-08  -9.62560806510361E-14
      3.67357789085014E-09
      8.00000000000000E-01   8.00000000000000E-01   0.00000000000000E+00  -2.73678663741233E-13   1.02685109756296E-08
     -2.49270092467576E-12   1.02657445960412E-08   1.67098508928368E-13   0.00000000000000E+00   0.00000000000000E+00
      0.00000000000000E+00  -7.80654516636449E-13  -1.97161737732471E-16   1.44877499645851E-08   1.44869691129067E-08
     -7.08624989505849E-14  -1.20000000000000E+01  -1.20000000000000E+01   0.00000000000000E+00   5.97442938760747E-08
     -4.14277918897686E-15  -8.44970034422435E-08  -2.47527137089480E-08  -9.62360099777823E-14
      4.12350189479463E-09
      8.00000000000000E-01   8.00000000000000E-01   0.00000000000000E+00  -1.94341670350396E-13   7.48866096426960E-09
     -1.86085678530630E-12   7.48660576581395E-09   1.67070509046896E-13   0.00000000000000E+00   0.00000000000000E+00
      0.00000000000000E+00  -4.86491459485058E-13  -1.97161778891500E-16   9.07947603821483E-09   9.07898934959356E-09
     -7.08568095769864E-14  -1.20000000000000E+01  -1.20000000000000E+01   0.00000000000000E+00   3.97765866347431E-08
     -4.14201771968890E-15  -5.63421776081329E-08  -1.65655951154075E-08  -9.62136994699112E-14
      4.79838790071138E-09
      8.00000000000000E-01   8.00000000000000E-01   0.00000000000000E+00  -1.18413739344610E-13   4.71378618673937E-09
     -1.19531729660334E-12   4.71247245570342E-09   1.67045899373482E-13   0.00000000000000E+00   0.00000000000000E+00
      0.00000000000000E+00  -2.11409843613942E-13  -1.97161847473410E-16   4.69453550742211E-09   4.69432390041665E-09
     -7.08517523500075E-14  -1.20000000000000E+01  -1.20000000000000E+01   0.00000000000000E+00   1.92350603358701E-08
     -4.14135035155165E-15  -2.86418525506398E-08  -9.40679635612009E-09  -9.61941470234751E-14
      5.81071690958651E-09
      8.00000000000000E-01   8.00000000000000E-01   0.00000000000000E+00  -5.76384228189297E-14   2.41870589462519E-09
     -6.09107716016043E-13   2.41803914848635E-09   1.67029581544277E-13   0.00000000000000E+00   0.00000000000000E+00
      0.00000000000000E+00  -6.53512928729699E-14  -1.97161938147621E-16   2.17771896382195E-09   2.17765341536714E-09
     -7.08479125979854E-14  -1.20000000000000E+01  -1.20000000000000E+01   0.00000000000000E+00   6.67858410013973E-09
     -4.14092436896817E-15  -1.12742725230688E-08  -4.59569256385348E-09  -9.61816689462919E-14
      7.32921042289919E-09
      8.00000000000000E-01   8.00000000000000E-01   0.00000000000000E+00  -2.14859928415737E-14   8.89518217858711E-10
     -2.14720206557352E-13   8.89282011659312E-10   1.67020387390950E-13   0.00000000000000E+00   0.00000000000000E+00
      0.00000000000000E+00  -2.56987004832211E-14  -1.97162037603772E-16   9.15300773188873E-10   9.15274877326352E-10
     -7.08453413836289E-14  -1.20000000000000E+01  -1.20000000000000E+01   0.00000000000000E+00   2.47447652226764E-09
     -4.14069812870850E-15  -4.27902927055517E-09  -1.80455688898566E-09  -9.61750460073195E-14
      9.60695069286822E-09
      8.00000000000000E-01   8.00000000000000E-01   0.00000000000000E+00  -4.25758576438044E-15   1.68703382733988E-10
     -3.95562020410318E-14   1.68659568946182E-10   1.67015776436859E-13   0.00000000000000E+00   0.00000000000000E+00
      0.00000000000000E+00  -6.51493611982801E-15  -1.97162117849367E-16   2.38269683575653E-10   2.38262971477415E-10
     -7.08440706090869E-14  -1.20000000000000E+01  -1.20000000000000E+01   0.00000000000000E+00   5.96819260627194E-10
     -4.14058399514350E-15  -1.00373766046680E-09  -4.06922540423597E-10  -9.61717058277720E-14
      1.30235610978218E-08
      8.00000000000000E-01   8.00000000000000E-01   0.00000000000000E+00  -8.66634089282151E-17   4.35837027261806E-12
     -1.00580226469326E-15   4.35727780694443E-12   1.67014652399861E-13   0.00000000000000E+00   0.00000000000000E+00
      0.00000000000000E+00  -3.66890000374424E-18  -1.97162143842252E-16   6.57348973924504E-11   6.57346965614065E-11
     -7.08437782975949E-14  -1.20000000000000E+01  -1.20000000000000E+01   0.00000000000000E+00   1.36392773084292E-12
     -4.14055558107849E-15  -7.14517615436129E-11  -7.00919743683510E-11  -9.61708741022651E-14
      1.55235610978218E-08
      8.00000000000000E-01   8.00000000000000E-01   0.00000000000000E+00  -1.64820059973774E-17   9.96318259175339E-13
     -1.29528859843304E-16   9.96172248309498E-13   1.67014636409449E-13   0.00000000000000E+00   0.00000000000000E+00
      0.00000000000000E+00   1.10431897136699E-17  -1.97162131832382E-16   6.38085335771826E-11   6.38083474582405E-11
     -7.08437731112249E-14  -1.20000000000000E+01  -1.20000000000000E+01   0.00000000000000E+00   4.25766169608813E-12
     -4.14055521141858E-15  -6.90580408474266E-11  -6.48045197065499E-11  -9.61708632982235E-14
      1.73985610978218E-08
      8.00000000000000E-01   8.00000000000000E-01   0.00000000000000E+00  -7.97458339836139E-18   4.33123497832824E-13
     -1.89865409907909E-17   4.33096536708435E-13   1.67014632270935E-13   0.00000000000000E+00   0.00000000000000E+00
      0.00000000000000E+00  -1.82278856550220E-17  -1.97162118134695E-16   6.30906897388862E-11   6.30904743488824E-11
     -7.08437724212333E-14  -1.20000000000000E+01  -1.20000000000000E+01   0.00000000000000E+00   2.08115418782154E-13
     -4.14055509369500E-15  -6.37275457492791E-11  -6.35235708855907E-11  -9.61708598497018E-14
      2.02110610978218E-08
      8.00000000000000E-01   8.00000000000000E-01   0.00000000000000E+00  -1.97578409565670E-18   2.52175125677434E-13
      1.68453312366105E-17   2.52189995224575E-13   1.67014631780839E-13   0.00000000000000E+00   0.00000000000000E+00
      0.00000000000000E+00  -3.27562043943676E-17  -1.97162096850502E-16   6.30161652447040E-11   6.30159353264028E-11
     -7.08437724760936E-14  -1.20000000000000E+01  -1.20000000000000E+01   0.00000000000000E+00   1.14046801046811E-13
     -4.14055507506181E-15  -6.33780315675991E-11  -6.32681253216273E-11  -9.61708593047453E-14
      2.23204360978218E-08
      8.00000000000000E-01   8.00000000000000E-01   0.00000000000000E+00   9.09550097558259E-18   2.17205620232250E-13
      1.99257328599166E-17   2.17234641466085E-13   1.67014631836933E-13   0.00000000000000E+00   0.00000000000000E+00