DF-ISE text

Info {
  version   = 1.0
  type      = xyplot
  datasets  = [
    "time"
    "Ntop OuterVoltage" "Ntop InnerVoltage" "Ntop QuasiFermiPotential" "Ntop DisplacementCurrent" "Ntop eCurrent"
    "Ntop hCurrent" "Ntop TotalCurrent" "Ntop Charge" "Ptop OuterVoltage" "Ptop InnerVoltage"
    "Ptop QuasiFermiPotential" "Ptop DisplacementCurrent" "Ptop eCurrent" "Ptop hCurrent" "Ptop TotalCurrent"
    "Ptop Charge" "Pbot OuterVoltage" "Pbot InnerVoltage" "Pbot QuasiFermiPotential" "Pbot DisplacementCurrent"
    "Pbot eCurrent" "Pbot hCurrent" "Pbot TotalCurrent" "Pbot Charge" ]
  functions = [
    Time
    OuterVoltage InnerVoltage QuasiFermiPotential DisplacementCurrent eCurrent
    hCurrent TotalCurrent Charge OuterVoltage InnerVoltage
    QuasiFermiPotential DisplacementCurrent eCurrent hCurrent TotalCurrent
    Charge OuterVoltage InnerVoltage QuasiFermiPotential DisplacementCurrent
    eCurrent hCurrent TotalCurrent Charge ]
}

Data {
      5.00000000000000E-13
      8.00000000000000E-01   8.00000000000000E-01   0.00000000000000E+00   9.91727893078751E-15   4.28329064695147E-12
     -3.82934062872429E-12   4.63867297157966E-13   2.34224766837331E-13   0.00000000000000E+00   0.00000000000000E+00
      0.00000000000000E+00  -1.16778395407544E-13  -1.97157898428455E-16   1.75432727072912E-09   1.75421029517582E-09
     -6.21801123149721E-14  -4.50000000000000E+01  -4.50000000000000E+01   0.00000000000000E+00  -2.31956261760219E-13
      7.63376625169743E-12  -1.76207597246291E-09  -1.75467416247297E-09  -1.72044654522358E-13
      1.25000000000000E-12
      8.00000000000000E-01   8.00000000000000E-01   0.00000000000000E+00   5.99509837646244E-14   1.88690606072918E-11
     -1.76697895775054E-11   1.25922201355109E-12   2.34224766837542E-13   0.00000000000000E+00   0.00000000000000E+00
      0.00000000000000E+00  -8.74940746804173E-14  -1.97157898427032E-16   1.75495362897465E-09   1.75486593774207E-09
     -6.21801123146368E-14  -4.50000000000000E+01  -4.50000000000000E+01   0.00000000000000E+00  -1.30174482840400E-12
      3.52393889439632E-11  -1.79006280387118E-09  -1.75612515975562E-09  -1.72044654522906E-13
      2.37500000000000E-12
      8.00000000000000E-01   8.00000000000000E-01   0.00000000000000E+00   4.46532440981029E-13   1.56370520330370E-10
     -1.46201676652375E-10   1.06153761189765E-11   2.34224766840637E-13   0.00000000000000E+00   0.00000000000000E+00
      0.00000000000000E+00   6.25949619079502E-13  -1.97157898412117E-16   1.76223941247179E-09   1.76286516493297E-09
     -6.21801123096079E-14  -4.50000000000000E+01  -4.50000000000000E+01   0.00000000000000E+00  -1.41457196831751E-11
      2.91525962135001E-10  -2.05086078350377E-09  -1.77348054105194E-09  -1.72044654531029E-13
      4.06250000000000E-12
      8.00000000000000E-01   8.00000000000000E-01   0.00000000000000E+00   6.67656273398489E-12   2.42713193170649E-09
     -2.21791346437335E-09   2.15895030067125E-10   2.34224766931526E-13   0.00000000000000E+00   0.00000000000000E+00
      0.00000000000000E+00   8.53476644615973E-12  -1.97157898067245E-16   1.93314841990036E-09   1.94168298918863E-09
     -6.21801121574492E-14  -4.50000000000000E+01  -4.50000000000000E+01   0.00000000000000E+00  -2.98400548416762E-10
      4.42025018429118E-09  -6.27942765513016E-09  -2.15757801925575E-09  -1.72044654774077E-13
      6.59375000000000E-12
      8.00000000000000E-01   8.00000000000000E-01   0.00000000000000E+00   1.32972070759217E-10   5.05391381236819E-08
     -4.43857775475416E-08   6.28633264689957E-09   2.34224770803186E-13   0.00000000000000E+00   0.00000000000000E+00
      0.00000000000000E+00   1.72078126141326E-10  -1.97157887543019E-16   7.14707107236502E-09   7.31914900134846E-09
     -6.21801054962855E-14  -4.50000000000000E+01  -4.50000000000000E+01   0.00000000000000E+00  -8.77022175025913E-09
      8.83818375749314E-08  -9.32170974729203E-08  -1.36054816482480E-08  -1.72044665306900E-13
      1.03906250000000E-11
      8.00000000000000E-01   8.00000000000000E-01   0.00000000000000E+00   1.11094350314526E-09   4.53140348476161E-07
     -3.69433201036282E-07   8.48180909430235E-08   2.34224852884771E-13   0.00000000000000E+00   0.00000000000000E+00
      0.00000000000000E+00   1.42526096747872E-09  -1.97157748782582E-16   7.57820772918163E-08   7.72073380621373E-08
     -6.21799622396323E-14  -4.50000000000000E+01  -4.50000000000000E+01   0.00000000000000E+00  -1.18518666292192E-07
      7.34363350640597E-07  -7.77870113353566E-07  -1.62025429005161E-07  -1.72044890645139E-13
      1.60859375000000E-11
      8.00000000000000E-01   8.00000000000000E-01   0.00000000000000E+00   6.47655989480608E-10   4.05310741400689E-07
     -1.97691759417052E-07   2.08266637973118E-07   2.34225283902848E-13   0.00000000000000E+00   0.00000000000000E+00
      0.00000000000000E+00   6.69840407287995E-10  -1.97157538388000E-16   1.79216605654085E-07   1.79886445864215E-07
     -6.21792256307100E-14  -4.50000000000000E+01  -4.50000000000000E+01   0.00000000000000E+00  -2.84446485509703E-07
      3.86959003180444E-07  -4.90665601508075E-07  -3.88153083837334E-07  -1.72046058272137E-13
      2.46289062500000E-11
      8.00000000000000E-01   8.00000000000000E-01   0.00000000000000E+00   8.55383417485287E-11   2.77188979064410E-07
     -4.93766433300299E-09   2.72336853073156E-07   2.34226360343447E-13   0.00000000000000E+00   0.00000000000000E+00
      0.00000000000000E+00  -1.05168041590617E-10  -1.97157476830978E-16   2.08348451267462E-07   2.08243283028714E-07
     -6.21775505775908E-14  -4.50000000000000E+01  -4.50000000000000E+01   0.00000000000000E+00  -3.47961465163221E-07
      7.17025120309623E-10  -1.33335696058958E-07  -4.80580136101869E-07  -1.72048809765858E-13
      3.74433593750000E-11
      8.00000000000000E-01   8.00000000000000E-01   0.00000000000000E+00   6.24932257735242E-11   2.98572204673656E-07
     -4.16187020182397E-09   2.94472827697606E-07   2.34228268443879E-13   0.00000000000000E+00   0.00000000000000E+00
      0.00000000000000E+00  -7.97141882587727E-11  -1.97157517710259E-16   1.86364076738330E-07   1.86284362352913E-07
     -6.21750505689975E-14  -4.50000000000000E+01  -4.50000000000000E+01   0.00000000000000E+00  -3.39973676004440E-07
     -6.25609124664009E-15  -1.40783507789988E-07  -4.80757190050519E-07  -1.72053217874880E-13
      5.66650390625000E-11
      8.00000000000000E-01   8.00000000000000E-01   0.00000000000000E+00   4.28994103350043E-11   3.21172531570224E-07
     -3.60309171158842E-09   3.17612339268970E-07   2.34231392364918E-13   0.00000000000000E+00   0.00000000000000E+00
      0.00000000000000E+00  -5.76616731245519E-11  -1.97157563400038E-16   1.61469511942732E-07   1.61411850072450E-07
     -6.21717549185020E-14  -4.50000000000000E+01  -4.50000000000000E+01   0.00000000000000E+00  -3.28071769913301E-07
     -6.25628964700487E-15  -1.50952413171831E-07  -4.79024189341422E-07  -1.72059637446416E-13
      8.54975585937500E-11
      8.00000000000000E-01   8.00000000000000E-01   0.00000000000000E+00   2.58091003640794E-11   3.42460889028766E-07
     -2.90175127624163E-09   3.39584946852889E-07   2.34236416638242E-13   0.00000000000000E+00   0.00000000000000E+00
      0.00000000000000E+00  -3.81237879779615E-11  -1.97157609901328E-16   1.35540123682844E-07   1.35501999697709E-07
     -6.21675497495088E-14  -4.50000000000000E+01  -4.50000000000000E+01   0.00000000000000E+00  -3.12359552984562E-07
     -6.25649920389072E-15  -1.62727387309534E-07  -4.75086946550596E-07  -1.72068866888733E-13
      1.28746337890625E-10
      8.00000000000000E-01   8.00000000000000E-01   0.00000000000000E+00   1.19692253848481E-11   3.58902563398699E-07
     -2.09648310711475E-09   3.56818049516969E-07   2.34244290231835E-13   0.00000000000000E+00   0.00000000000000E+00
      0.00000000000000E+00  -2.21665392651502E-11  -1.97157651423451E-16   1.11160363489593E-07   1.11138196753170E-07
     -6.21623369928279E-14  -4.50000000000000E+01  -4.50000000000000E+01   0.00000000000000E+00  -2.93204920573755E-07
     -6.25679661771674E-15  -1.74751319439588E-07  -4.67956246270140E-07  -1.72081953239008E-13
      1.61182922363281E-10
      8.00000000000000E-01   8.00000000000000E-01   0.00000000000000E+00   6.24237126254897E-12   3.64244220237812E-07
     -1.64484494804234E-09   3.62605617661032E-07   2.34250271992178E-13   0.00000000000000E+00   0.00000000000000E+00
      0.00000000000000E+00  -1.56551673620341E-11  -1.97157669057902E-16   9.95887054202569E-08   9.95730500557372E-08
     -6.21589994136713E-14  -4.50000000000000E+01  -4.50000000000000E+01   0.00000000000000E+00  -2.81574220553796E-07
     -6.25700856808330E-15  -1.80604440905964E-07  -4.62178667716769E-07  -1.72091272578506E-13
      2.09837799072266E-10
      8.00000000000000E-01   8.00000000000000E-01   0.00000000000000E+00   1.38910329805909E-12   3.66611632121294E-07
     -1.14368033702432E-09   3.65469340887568E-07   2.34259177842841E-13   0.00000000000000E+00   0.00000000000000E+00
      0.00000000000000E+00  -1.03254641131399E-11  -1.97157683579491E-16   8.77145225317547E-08   8.77041968704838E-08
     -6.21545644661449E-14  -4.50000000000000E+01  -4.50000000000000E+01   0.00000000000000E+00  -2.67051712509796E-07
     -6.25731209936924E-15  -1.86121818990942E-07  -4.53173537758050E-07  -1.72104613376696E-13
      2.46328956604004E-10
      8.00000000000000E-01   8.00000000000000E-01   0.00000000000000E+00  -4.73652571831618E-13   3.65897352326662E-07
     -8.72977066524282E-10   3.65023901607566E-07   2.34265754247702E-13   0.00000000000000E+00   0.00000000000000E+00
      0.00000000000000E+00  -8.40177790741761E-12  -1.97157688720922E-16   8.12371504609450E-08   8.12287484858799E-08
     -6.21515668920879E-14  -4.50000000000000E+01  -4.50000000000000E+01   0.00000000000000E+00  -2.57765806993136E-07
     -6.25752998639360E-15  -1.88486836842779E-07  -4.46252650093445E-07  -1.72114187355615E-13
      3.01065692901611E-10
      8.00000000000000E-01   8.00000000000000E-01   0.00000000000000E+00  -1.80332810787088E-12   3.63147828221900E-07
     -5.83373010147761E-10   3.62562651883644E-07   2.34275421606139E-13   0.00000000000000E+00   0.00000000000000E+00
      0.00000000000000E+00  -7.15607834014237E-12  -1.97157691954745E-16   7.31745913963220E-08   7.31674351208242E-08
     -6.21474662348677E-14  -4.50000000000000E+01  -4.50000000000000E+01   0.00000000000000E+00  -2.45424830800984E-07
     -6.25784336775982E-15  -1.90305249945640E-07  -4.35730087004468E-07  -1.72127955371272E-13
      3.42118245124817E-10
      8.00000000000000E-01   8.00000000000000E-01   0.00000000000000E+00  -2.12964704665775E-12   3.60569237542536E-07
     -4.33188102741404E-10   3.60133919792748E-07   2.34282523070777E-13   0.00000000000000E+00   0.00000000000000E+00
      0.00000000000000E+00  -6.95415279432992E-12  -1.97157692770190E-16   6.76548084880709E-08   6.76478541381189E-08
     -6.21446660614744E-14  -4.50000000000000E+01  -4.50000000000000E+01   0.00000000000000E+00  -2.37008848272519E-07
     -6.25806876346631E-15  -1.90772919400279E-07  -4.27781773930866E-07  -1.72137857009302E-13
      4.03697073459625E-10
      8.00000000000000E-01   8.00000000000000E-01   0.00000000000000E+00  -2.11464855229341E-12   3.56763846608924E-07
     -2.78665740207841E-10   3.56483066220164E-07   2.34292972898730E-13   0.00000000000000E+00   0.00000000000000E+00
      0.00000000000000E+00  -7.17236860757572E-12  -1.97157693979253E-16   5.93636024204211E-08   5.93564298546559E-08
     -6.21408871759064E-14  -4.50000000000000E+01  -4.50000000000000E+01   0.00000000000000E+00  -2.25184431372166E-07
     -6.25839266652079E-15  -1.90655058444260E-07  -4.15839496074819E-07  -1.72152085722823E-13
      4.49881194710732E-10
      8.00000000000000E-01   8.00000000000000E-01   0.00000000000000E+00  -1.89899896094258E-12   3.54226829573406E-07
     -2.01945220775261E-10   3.54022985353669E-07   2.34300681896765E-13   0.00000000000000E+00   0.00000000000000E+00
      0.00000000000000E+00  -7.53358802456586E-12  -1.97157695907042E-16   5.28787267554711E-08   5.28711929702889E-08
     -6.21383919670687E-14  -4.50000000000000E+01  -4.50000000000000E+01   0.00000000000000E+00  -2.16730016334771E-07
     -6.25862495428331E-15  -1.90164155730562E-07  -4.06894178323958E-07  -1.72162289929696E-13
      5.19157376587391E-10
      8.00000000000000E-01   8.00000000000000E-01   0.00000000000000E+00  -1.46648441590513E-12   3.51156645913788E-07
     -1.26139760097416E-10   3.51029039669275E-07   2.34312105209713E-13   0.00000000000000E+00   0.00000000000000E+00
      0.00000000000000E+00  -8.15707581536127E-12  -1.97157701766478E-16   4.25040081739307E-08   4.24958509009576E-08
     -6.21352279018050E-14  -4.50000000000000E+01  -4.50000000000000E+01   0.00000000000000E+00  -2.04437820515648E-07
     -6.25895700861688E-15  -1.89087063795628E-07  -3.93524890570233E-07  -1.72176877307909E-13
      5.71114512994885E-10
      8.00000000000000E-01   8.00000000000000E-01   0.00000000000000E+00  -1.12440073754277E-12   3.49455550576924E-07
     -9.01423479940442E-11   3.49364283828193E-07   2.34320602830480E-13   0.00000000000000E+00   0.00000000000000E+00
      0.00000000000000E+00  -8.60912381149519E-12  -1.97157708983398E-16   3.41903396244378E-08   3.41817303034686E-08
     -6.21333379941474E-14  -4.50000000000000E+01  -4.50000000000000E+01   0.00000000000000E+00  -1.95423276514682E-07
     -6.25919344955299E-15  -1.88122731357785E-07  -3.83546014131661E-07  -1.72187264836333E-13
      6.49050217606127E-10
      8.00000000000000E-01   8.00000000000000E-01   0.00000000000000E+00  -6.53175515974906E-13   3.47797469908127E-07
     -5.59355475378021E-11   3.47740881185073E-07   2.34333312325511E-13   0.00000000000000E+00   0.00000000000000E+00
      0.00000000000000E+00  -9.21179753759900E-12  -1.97157724851149E-16   2.09313108197583E-08   2.09220988250630E-08
     -6.21313366546154E-14  -4.50000000000000E+01  -4.50000000000000E+01   0.00000000000000E+00  -1.82105873156599E-07
     -6.25952827661846E-15  -1.86557100594010E-07  -3.68662980010137E-07  -1.72201975670895E-13
      7.07501996064559E-10
      8.00000000000000E-01   8.00000000000000E-01   0.00000000000000E+00  -3.50984146914368E-13   3.47170981615321E-07
     -4.03410810738037E-11   3.47130289550100E-07   2.34342857206477E-13   0.00000000000000E+00   0.00000000000000E+00
      0.00000000000000E+00  -9.58293824182455E-12  -1.97157740775636E-16   1.04480406388674E-08   1.04384575034679E-08
     -6.21305258100187E-14  -4.50000000000000E+01  -4.50000000000000E+01   0.00000000000000E+00  -1.72235088067431E-07
     -6.25976396280792E-15  -1.85333652726374E-07  -3.57568747053569E-07  -1.72212331396459E-13
      7.95179663752206E-10
      8.00000000000000E-01   8.00000000000000E-01   0.00000000000000E+00   6.08767756592022E-15   3.47014013897383E-07
     -2.59685600466012E-11   3.46988051425014E-07   2.34357266759437E-13   0.00000000000000E+00   0.00000000000000E+00
      0.00000000000000E+00  -1.00094216733410E-11  -1.97157770535554E-16  -5.94455822772768E-09  -5.95456784655879E-09
     -6.21304778523778E-14  -4.50000000000000E+01  -4.50000000000000E+01   0.00000000000000E+00  -1.57565016837456E-07
     -6.26009297787510E-15  -1.83468460480906E-07  -3.41033483578455E-07  -1.72226788907058E-13
      9.26696165283676E-10
      8.00000000000000E-01   8.00000000000000E-01   0.00000000000000E+00   3.14736521459925E-13   3.47966952831893E-07
     -1.51777618439928E-11   3.47952089806570E-07   2.34379219438283E-13   0.00000000000000E+00   0.00000000000000E+00
      0.00000000000000E+00  -1.03371357085310E-11  -1.97157821561324E-16  -3.14863458137322E-08  -3.14966831465986E-08
     -6.21331407172389E-14  -4.50000000000000E+01  -4.50000000000000E+01   0.00000000000000E+00  -1.35801483787770E-07
     -6.26053191942645E-15  -1.80653916611669E-07  -3.16455406659972E-07  -1.72246078721045E-13
      1.02533354143228E-09
      8.00000000000000E-01   8.00000000000000E-01   0.00000000000000E+00   3.49548321024222E-13   3.49119885427088E-07
     -1.12767749962947E-11   3.49108958200413E-07   2.34396015672147E-13   0.00000000000000E+00   0.00000000000000E+00
      0.00000000000000E+00  -1.03156634942200E-11  -1.97157850826018E-16  -5.09101754606298E-08  -5.09204913212818E-08
     -6.21373394227328E-14  -4.50000000000000E+01  -4.50000000000000E+01   0.00000000000000E+00  -1.19640588875216E-07
     -6.26081855012822E-15  -1.78547871743096E-07  -2.98188466879131E-07  -1.72258676249414E-13
      1.17328960565518E-09
      8.00000000000000E-01   8.00000000000000E-01   0.00000000000000E+00  -2.36209227494539E-14   3.50271566195832E-07
     -8.09619735624182E-12   3.50263446377553E-07   2.34421746043516E-13   0.00000000000000E+00   0.00000000000000E+00
      0.00000000000000E+00  -9.71201122176908E-12  -1.97157799744156E-16  -7.92087056966385E-08  -7.92184179050180E-08
     -6.21471458594943E-14  -4.50000000000000E+01  -4.50000000000000E+01   0.00000000000000E+00  -9.56360690554803E-08
     -6.26118083629935E-15  -1.75408953155873E-07  -2.71045028472534E-07  -1.72274600184021E-13
      1.28425665382236E-09
      8.00000000000000E-01   8.00000000000000E-01   0.00000000000000E+00  -7.53981506688952E-13   3.49525653789470E-07
     -6.74928808998508E-12   3.49518150519874E-07   2.34441346419753E-13   0.00000000000000E+00   0.00000000000000E+00
      0.00000000000000E+00  -8.63271985570475E-12  -1.97157563678960E-16  -9.86082186269748E-08  -9.86168515439881E-08
     -6.21571226615756E-14  -4.50000000000000E+01  -4.50000000000000E+01   0.00000000000000E+00  -7.78289972751997E-08
     -6.26139976724373E-15  -1.73072295439287E-07  -2.50901298975886E-07  -1.72284223758177E-13
      1.36748193994775E-09
      8.00000000000000E-01   8.00000000000000E-01   0.00000000000000E+00  -1.64100182327477E-12   3.47211468229529E-07
     -6.01967562293698E-12   3.47203807552083E-07   2.34456073867822E-13   0.00000000000000E+00   0.00000000000000E+00
      0.00000000000000E+00  -7.35931385918847E-12  -1.97157148507871E-16  -1.11260514319665E-07  -1.11267873830682E-07
     -6.21659234891949E-14  -4.50000000000000E+01  -4.50000000000000E+01   0.00000000000000E+00  -6.46058375514841E-08
     -6.26153458939638E-15  -1.71330089908382E-07  -2.35935933721401E-07  -1.72290150378627E-13
      1.49231986913582E-09
      8.00000000000000E-01   8.00000000000000E-01   0.00000000000000E+00  -3.54509059340123E-12   3.39309762321422E-07
     -5.18094979336031E-12   3.39301036281035E-07   2.34477801642383E-13   0.00000000000000E+00   0.00000000000000E+00
      0.00000000000000E+00  -4.61310207277591E-12  -1.97155775488947E-16  -1.25490275731110E-07  -1.25494889030339E-07
     -6.21808076284199E-14  -4.50000000000000E+01  -4.50000000000000E+01   0.00000000000000E+00  -4.50724079383957E-08
     -6.26169026875630E-15  -1.68733733050610E-07  -2.13806147250696E-07  -1.72296994013965E-13
      1.58594831602688E-09
      8.00000000000000E-01   8.00000000000000E-01   0.00000000000000E+00  -5.37641211395224E-12   3.28847111466583E-07
     -4.68524921744129E-12   3.28837049805251E-07   2.34493429693249E-13   0.00000000000000E+00   0.00000000000000E+00
      0.00000000000000E+00  -1.94234762435552E-12  -1.97153780355994E-16  -1.31270912535220E-07  -1.31272855079998E-07
     -6.21928869637264E-14  -4.50000000000000E+01  -4.50000000000000E+01   0.00000000000000E+00  -3.07640206057947E-08
     -6.26177099508691E-15  -1.66800167857687E-07  -1.97564194725252E-07  -1.72300542729521E-13
      1.72639098636346E-09
      8.00000000000000E-01   8.00000000000000E-01   0.00000000000000E+00  -8.41117354282588E-12   3.04355670698075E-07
     -4.07523632983629E-12   3.04343184288202E-07   2.34514781959615E-13   0.00000000000000E+00   0.00000000000000E+00
      0.00000000000000E+00   2.62196702347912E-12  -1.97148086717592E-16  -1.30231778148425E-07  -1.30229156378549E-07
     -6.22113712781495E-14  -4.50000000000000E+01  -4.50000000000000E+01   0.00000000000000E+00  -1.01908917267987E-08
     -6.26183623994598E-15  -1.63923129921018E-07  -1.74114027909653E-07  -1.72303410681466E-13
      1.83172298911590E-09
      8.00000000000000E-01   8.00000000000000E-01   0.00000000000000E+00  -1.05398402246095E-11   2.78980140115206E-07
     -3.69383829732140E-12   2.78965906436684E-07   2.34528406842140E-13   0.00000000000000E+00   0.00000000000000E+00
      0.00000000000000E+00   6.00697599494756E-12  -1.97140678269152E-16  -1.21429379255836E-07  -1.21423372476982E-07
     -6.22246876218127E-14  -4.50000000000000E+01  -4.50000000000000E+01   0.00000000000000E+00   4.24232450798403E-09
     -6.26184326739194E-15  -1.61784852205842E-07  -1.57542533959701E-07  -1.72303719220328E-13
      1.98972099324456E-09
      8.00000000000000E-01   8.00000000000000E-01   0.00000000000000E+00  -1.26789168810438E-11   2.32078449849461E-07
     -3.20766745669111E-12   2.32062563265123E-07   2.34543578571038E-13   0.00000000000000E+00   0.00000000000000E+00
      0.00000000000000E+00   9.92150548313668E-12  -1.97122023582968E-16  -9.70791239184368E-08  -9.70692026100757E-08
     -6.22420813615639E-14  -4.50000000000000E+01  -4.50000000000000E+01   0.00000000000000E+00   2.36188534131815E-08
     -6.26179274315661E-15  -1.58612207806437E-07  -1.34993360655048E-07  -1.72301497209474E-13
      2.10821949634105E-09
      8.00000000000000E-01   8.00000000000000E-01   0.00000000000000E+00  -1.31036466511156E-11   1.93086409530954E-07
     -2.89636957013708E-12   1.93070409514733E-07   2.34550173306027E-13   0.00000000000000E+00   0.00000000000000E+00
      0.00000000000000E+00   1.14160158575749E-11  -1.97100469833962E-16  -7.28092413555449E-08  -7.27978255367878E-08
     -6.22522181820762E-14  -4.50000000000000E+01  -4.50000000000000E+01   0.00000000000000E+00   3.59903991352804E-08
     -6.26171218990022E-15  -1.56262976851513E-07  -1.20272583977945E-07  -1.72297955123951E-13
      2.28596725098579E-09
      8.00000000000000E-01   8.00000000000000E-01   0.00000000000000E+00  -1.18346469049216E-11   1.36313888119412E-07
     -2.49497043096749E-12   1.36299558502077E-07   2.34552047298052E-13   0.00000000000000E+00   0.00000000000000E+00
      0.00000000000000E+00   1.11410609673758E-11  -1.97053733868555E-16  -3.42229000489449E-08  -3.42117591850313E-08
     -6.22618323673486E-14  -4.50000000000000E+01  -4.50000000000000E+01   0.00000000000000E+00   5.07071241830068E-08
     -6.26153615313261E-15  -1.52794917238516E-07  -1.02087799317045E-07  -1.72290214930702E-13
      2.41927806696935E-09
      8.00000000000000E-01   8.00000000000000E-01   0.00000000000000E+00  -9.82919776019797E-12   9.94680052253774E-08
     -2.23633569109713E-12   9.94559396919261E-08   2.34547638831157E-13   0.00000000000000E+00   0.00000000000000E+00
      0.00000000000000E+00   9.42184062062232E-12  -1.97007372364665E-16  -8.05782086161184E-09  -8.04839921799859E-09
     -6.22647386398280E-14  -4.50000000000000E+01  -4.50000000000000E+01   0.00000000000000E+00   5.88347517574255E-08
     -6.26136978449201E-15  -1.50242285969983E-07  -9.14075404739275E-08  -1.72282900191329E-13
      2.61924429094468E-09
      8.00000000000000E-01   8.00000000000000E-01   0.00000000000000E+00  -6.40794960968257E-12   5.81138930084356E-08
     -1.90204837969153E-12   5.81055830104462E-08   2.34533790050133E-13   0.00000000000000E+00   0.00000000000000E+00
      0.00000000000000E+00   5.94572991888187E-12  -1.96923903449344E-16   2.11572738049214E-08   2.11632193379163E-08
     -6.22635268907545E-14  -4.50000000000000E+01  -4.50000000000000E+01   0.00000000000000E+00   6.72258802750926E-08
     -6.26108234996937E-15  -1.46494676362373E-07  -7.92688023483627E-08  -1.72270263159377E-13
      2.76921895892618E-09
      8.00000000000000E-01   8.00000000000000E-01   0.00000000000000E+00  -4.17419822650354E-12   3.79056582013573E-08
     -1.68648342275235E-12   3.78997975197080E-08   2.34519358315067E-13   0.00000000000000E+00   0.00000000000000E+00
      0.00000000000000E+00   3.49978273852352E-12  -1.96855521783724E-16   3.45223669915047E-08   3.45258665773877E-08
     -6.22594929919465E-14  -4.50000000000000E+01  -4.50000000000000E+01   0.00000000000000E+00   7.13145660158806E-08
     -6.26084583497596E-15  -1.43740223852131E-07  -7.24256640970958E-08  -1.72259865323121E-13
      2.88169995991231E-09
      8.00000000000000E-01   8.00000000000000E-01   0.00000000000000E+00  -2.89863130364771E-12   2.77379482400392E-08
     -1.54136599402919E-12   2.77335082427415E-08   2.34507129891890E-13   0.00000000000000E+00   0.00000000000000E+00
      0.00000000000000E+00   2.03980177331949E-12  -1.96804397414240E-16   4.03855943055113E-08   4.03876339104803E-08
     -6.22554156197104E-14  -4.50000000000000E+01  -4.50000000000000E+01   0.00000000000000E+00   7.35721641245043E-08
     -6.26066041969856E-15  -1.41693300017066E-07  -6.81211421532219E-08  -1.72251714272180E-13
      2.96606071065190E-09
      8.00000000000000E-01   8.00000000000000E-01   0.00000000000000E+00  -2.16278128046292E-12   2.22618683380727E-08
     -1.44079170589553E-12   2.22582647650863E-08   2.34497461923985E-13   0.00000000000000E+00   0.00000000000000E+00
      0.00000000000000E+00   1.19412247161436E-12  -1.96767492348290E-16   4.29448408217021E-08   4.29460347474062E-08
     -6.22520133281757E-14  -4.50000000000000E+01  -4.50000000000000E+01   0.00000000000000E+00   7.49541039021639E-08
     -6.26051788791704E-15  -1.40158397154139E-07  -6.52042995124925E-08  -1.72245448595809E-13
      3.09260183676129E-09
      8.00000000000000E-01   8.00000000000000E-01   0.00000000000000E+00  -1.37059181200297E-12   1.65343141748664E-08
     -1.30189173534431E-12   1.65316416913190E-08   2.34482496220814E-13   0.00000000000000E+00   0.00000000000000E+00
      0.00000000000000E+00   2.58002852036284E-13  -1.96716025204544E-16   4.46237903315842E-08   4.46240481377202E-08
     -6.22466432544928E-14  -4.50000000000000E+01  -4.50000000000000E+01   0.00000000000000E+00   7.66752755897484E-08
     -6.26029960017421E-15  -1.37830959158488E-07  -6.11556898290391E-08  -1.72235852966321E-13
      3.28241352592538E-09
      8.00000000000000E-01   8.00000000000000E-01   0.00000000000000E+00  -6.91154627792627E-13   1.15488554157539E-08
     -1.11758497180377E-12   1.15470466761543E-08   2.34459600973466E-13   0.00000000000000E+00   0.00000000000000E+00
      0.00000000000000E+00  -5.50537692826149E-13  -1.96649866422868E-16   4.39792763220960E-08   4.39787255877533E-08
     -6.22384953882764E-14  -4.50000000000000E+01  -4.50000000000000E+01   0.00000000000000E+00   7.86588169429780E-08
     -6.25996410409110E-15  -1.34184582946921E-07  -5.55257722639075E-08  -1.72221105585189E-13
      3.42477229279844E-09
      8.00000000000000E-01   8.00000000000000E-01   0.00000000000000E+00  -4.38519938597506E-13   9.46483400353227E-09
     -9.96246265236162E-13   9.46339923732844E-09   2.34442416364503E-13   0.00000000000000E+00   0.00000000000000E+00
      0.00000000000000E+00  -8.49601144208838E-13  -1.96609550243202E-16   4.20440214699809E-08   4.20431716722271E-08
     -6.22325862286520E-14  -4.50000000000000E+01  -4.50000000000000E+01   0.00000000000000E+00   7.97171348605317E-08
     -6.25970758370733E-15  -1.31223699510380E-07  -5.15065709095555E-08  -1.72209830135851E-13
      3.63831044310804E-09
      8.00000000000000E-01   8.00000000000000E-01   0.00000000000000E+00  -2.59030161359723E-13   7.53535509344650E-09
     -8.37723854082653E-13   7.53425833943106E-09   2.34417068755344E-13   0.00000000000000E+00   0.00000000000000E+00
      0.00000000000000E+00  -1.04429411706480E-12  -1.96562781180959E-16   3.81407814124547E-08   3.81397369217749E-08
     -6.22243534722302E-14  -4.50000000000000E+01  -4.50000000000000E+01   0.00000000000000E+00   8.04842710969370E-08
     -6.25931820310749E-15  -1.26158260098824E-07  -4.56739952612057E-08  -1.72192715283111E-13
      3.79846405584023E-09
      8.00000000000000E-01   8.00000000000000E-01   0.00000000000000E+00  -2.01925063010763E-13   6.56099565005059E-09
     -7.35238207496034E-13   6.56005848678008E-09   2.34398599850494E-13   0.00000000000000E+00   0.00000000000000E+00
      0.00000000000000E+00  -1.08049715158153E-12  -1.96536784352893E-16   3.48826401687045E-08   3.48815594750162E-08
     -6.22187611393434E-14  -4.50000000000000E+01  -4.50000000000000E+01   0.00000000000000E+00   8.02497198973034E-08
     -6.25902524050557E-15  -1.21691331600075E-07  -4.14416179617964E-08  -1.72179838711152E-13
      4.03869447493853E-09
      8.00000000000000E-01   8.00000000000000E-01   0.00000000000000E+00  -1.59527386804539E-13   5.41245408404213E-09
     -6.03966509583623E-13   5.41169059014574E-09   2.34372141382440E-13   0.00000000000000E+00   0.00000000000000E+00
      0.00000000000000E+00  -1.06094032104350E-12  -1.96508651056964E-16   2.99576855048243E-08   2.99566243679946E-08
     -6.22113635601563E-14  -4.50000000000000E+01  -4.50000000000000E+01   0.00000000000000E+00   7.82561375289455E-08
     -6.25859156727370E-15  -1.13624446228494E-07  -3.53683149581403E-08  -1.72160777822283E-13
      4.21886728926225E-09
      8.00000000000000E-01   8.00000000000000E-01   0.00000000000000E+00  -1.41114437341101E-13   4.69151524113148E-09
     -5.20923542951670E-13   4.69085320315119E-09   2.34353516107483E-13   0.00000000000000E+00   0.00000000000000E+00
      0.00000000000000E+00  -1.00960643001126E-12  -1.96494094521777E-16   2.63946344635259E-08   2.63936246606018E-08
     -6.22065841748000E-14  -4.50000000000000E+01  -4.50000000000000E+01   0.00000000000000E+00   7.53314352965497E-08
     -6.25827654189901E-15  -1.06415906902026E-07  -3.10844778637530E-08  -1.72146931932685E-13
      4.48912651074783E-09
      8.00000000000000E-01   8.00000000000000E-01   0.00000000000000E+00  -1.18960337011352E-13   3.75585448453662E-09
     -4.16906461123836E-13   3.75531861773849E-09   2.34328013121997E-13   0.00000000000000E+00   0.00000000000000E+00