DF-ISE text

Info {
  version   = 1.0
  type      = xyplot
  datasets  = [
    "time"
    "Ntop_0_1 OuterVoltage" "Ntop_0_1 InnerVoltage" "Ntop_0_1 QuasiFermiPotential" "Ntop_0_1 DisplacementCurrent" "Ntop_0_1 eCurrent"
    "Ntop_0_1 hCurrent" "Ntop_0_1 TotalCurrent" "Ntop_0_1 Charge" "Ntop_1_0 OuterVoltage" "Ntop_1_0 InnerVoltage"
    "Ntop_1_0 QuasiFermiPotential" "Ntop_1_0 DisplacementCurrent" "Ntop_1_0 eCurrent" "Ntop_1_0 hCurrent" "Ntop_1_0 TotalCurrent"
    "Ntop_1_0 Charge" "Ntop_1_1 OuterVoltage" "Ntop_1_1 InnerVoltage" "Ntop_1_1 QuasiFermiPotential" "Ntop_1_1 DisplacementCurrent"
    "Ntop_1_1 eCurrent" "Ntop_1_1 hCurrent" "Ntop_1_1 TotalCurrent" "Ntop_1_1 Charge" "Ptop OuterVoltage"
    "Ptop InnerVoltage" "Ptop QuasiFermiPotential" "Ptop DisplacementCurrent" "Ptop eCurrent" "Ptop hCurrent"
    "Ptop TotalCurrent" "Ptop Charge" "Pbot OuterVoltage" "Pbot InnerVoltage" "Pbot QuasiFermiPotential"
    "Pbot DisplacementCurrent" "Pbot eCurrent" "Pbot hCurrent" "Pbot TotalCurrent" "Pbot Charge"
    "Ntop_0_0 OuterVoltage" "Ntop_0_0 InnerVoltage" "Ntop_0_0 QuasiFermiPotential" "Ntop_0_0 DisplacementCurrent" "Ntop_0_0 eCurrent"
    "Ntop_0_0 hCurrent" "Ntop_0_0 TotalCurrent" "Ntop_0_0 Charge" ]
  functions = [
    Time
    OuterVoltage InnerVoltage QuasiFermiPotential DisplacementCurrent eCurrent
    hCurrent TotalCurrent Charge OuterVoltage InnerVoltage
    QuasiFermiPotential DisplacementCurrent eCurrent hCurrent TotalCurrent
    Charge OuterVoltage InnerVoltage QuasiFermiPotential DisplacementCurrent
    eCurrent hCurrent TotalCurrent Charge OuterVoltage
    InnerVoltage QuasiFermiPotential DisplacementCurrent eCurrent hCurrent
    TotalCurrent Charge OuterVoltage InnerVoltage QuasiFermiPotential
    DisplacementCurrent eCurrent hCurrent TotalCurrent Charge
    OuterVoltage InnerVoltage QuasiFermiPotential DisplacementCurrent eCurrent
    hCurrent TotalCurrent Charge ]
}

Data {
      5.00000000000000E-13
      8.00000000000000E-01   8.00000000000000E-01   0.00000000000000E+00   4.16289614154337E-15   8.13989349887087E-14
      2.07553619950341E-17   8.55825864922471E-14   1.45463661605614E-13   8.00000000000000E-01   8.00000000000000E-01
      0.00000000000000E+00  -1.52601536668857E-15   8.44693163291432E-14   2.07557590072415E-17   8.29640567214619E-14
      2.04250651365934E-13   8.00000000000000E-01   8.00000000000000E-01   0.00000000000000E+00   1.07287263323058E-15
      8.70217248824965E-14   2.07550578912304E-17   8.81153525736183E-14   1.81102027690379E-13   0.00000000000000E+00
      0.00000000000000E+00   0.00000000000000E+00  -4.27776000125911E-13   2.74656124369783E-12   7.00138973375951E-07
      7.00141292161194E-07  -1.88282719772196E-13  -1.70000000000000E+01  -1.70000000000000E+01   0.00000000000000E+00
     -1.09056833645366E-13   5.46153727368498E-12  -7.00146992366867E-07  -7.00141639886427E-07  -4.95642688448669E-13
      8.00000000000000E-01   8.00000000000000E-01   0.00000000000000E+00   3.00030096934349E-15   8.80421823457888E-14
      2.07551343626757E-17   9.10632384494950E-14   1.53109067558938E-13
      1.25000000000000E-12
      8.00000000000000E-01   8.00000000000000E-01   0.00000000000000E+00   2.94106889919461E-15   8.49713001962090E-14
      2.07549875359290E-17   8.79331240829395E-14   1.45463661605614E-13   8.00000000000000E-01   8.00000000000000E-01
      0.00000000000000E+00   9.58348309155390E-16   8.46059756198892E-14   2.07551847172023E-17   8.55850791137618E-14
      2.04250651365934E-13   8.00000000000000E-01   8.00000000000000E-01   0.00000000000000E+00   3.05406024969741E-15
      8.36032739937429E-14   2.07550820736188E-17   8.66780893255140E-14   1.81102027690380E-13   0.00000000000000E+00
      0.00000000000000E+00   0.00000000000000E+00  -4.45469936682771E-13   1.26809509539667E-11   7.00129868934245E-07
      7.00142104415262E-07  -1.88282719771595E-13  -1.70000000000000E+01  -1.70000000000000E+01   0.00000000000000E+00
     -6.88258365773538E-13   2.52681650217206E-11  -7.00167051077286E-07  -7.00142471170630E-07  -4.95642688448960E-13
      8.00000000000000E-01   8.00000000000000E-01   0.00000000000000E+00   3.95355010064615E-15   1.02584772332731E-13
      2.07551208283966E-17   1.06559077554206E-13   1.53109067558627E-13
      2.37500000000000E-12
      8.00000000000000E-01   8.00000000000000E-01   0.00000000000000E+00  -6.30037699525394E-16   9.23213794295802E-14
      2.07551603632083E-17   9.17120968904180E-14   1.45463661605617E-13   8.00000000000000E-01   8.00000000000000E-01
      0.00000000000000E+00  -6.44639239114993E-17   9.23202820992909E-14   2.07550071182287E-17   9.22765731824976E-14
      2.04250651365938E-13   8.00000000000000E-01   8.00000000000000E-01   0.00000000000000E+00  -2.76878772955699E-16
      8.68097206507299E-14   2.07550862890163E-17   8.65535969640632E-14   1.81102027690380E-13   0.00000000000000E+00
      0.00000000000000E+00   0.00000000000000E+00   8.79639295084426E-13   1.04962849289436E-10   7.00045904240944E-07
      7.00151746729528E-07  -1.88282719762663E-13  -1.70000000000000E+01  -1.70000000000000E+01   0.00000000000000E+00
     -7.53933155420282E-12   2.09150007087062E-10  -7.00353914701297E-07  -7.00152304025764E-07  -4.95642688453289E-13
      8.00000000000000E-01   8.00000000000000E-01   0.00000000000000E+00   7.28790811096625E-15   2.79445306131003E-13
      2.07550460951721E-17   2.86753969288065E-13   1.53109067554017E-13
      4.06250000000000E-12
      8.00000000000000E-01   8.00000000000000E-01   0.00000000000000E+00   3.72231499154591E-15   2.12420198886210E-13
      2.07553565084538E-17   2.16163269234264E-13   1.45463661605728E-13   8.00000000000000E-01   8.00000000000000E-01
      0.00000000000000E+00   2.11405975136064E-15   2.12697284123844E-13   2.07552011761907E-17   2.14832099076381E-13
      2.04250651366049E-13   8.00000000000000E-01   8.00000000000000E-01   0.00000000000000E+00  -1.93589031543990E-16
      1.05535442453757E-13   2.07551494610410E-17   1.05362608571674E-13   1.81102027690398E-13   0.00000000000000E+00
      0.00000000000000E+00   0.00000000000000E+00   9.73235063666045E-12   1.59306395520197E-09   6.98762452648104E-07
      7.00365248953943E-07  -1.88282719495538E-13  -1.70000000000000E+01  -1.70000000000000E+01   0.00000000000000E+00
     -1.59272461323443E-10   3.17144883490734E-09  -7.03382146092760E-07  -7.00369969719176E-07  -4.95642688582967E-13
      8.00000000000000E-01   8.00000000000000E-01   0.00000000000000E+00   1.18591485804577E-13   4.06579502066244E-12
      2.07550920631420E-17   4.18440726155908E-12   1.53109067416328E-13
      6.59375000000000E-12
      8.00000000000000E-01   8.00000000000000E-01   0.00000000000000E+00   7.16711811265387E-14   3.70261191520521E-12
      2.07551128128457E-17   3.77430385144457E-12   1.45463661610324E-13   8.00000000000000E-01   8.00000000000000E-01
      0.00000000000000E+00   7.07353385544834E-14   3.70753580205339E-12   2.07552115250061E-17   3.77829189581940E-12
      2.04250651370660E-13   8.00000000000000E-01   8.00000000000000E-01   0.00000000000000E+00   1.07682832626050E-14
      6.67466495815998E-13   2.07550507432272E-17   6.78255534129346E-13   1.81102027691140E-13   0.00000000000000E+00
      0.00000000000000E+00   0.00000000000000E+00   1.94473868665871E-10   3.19053579616773E-08   6.74635877618119E-07
      7.06735709448462E-07  -1.88282707931435E-13  -1.70000000000000E+01  -1.70000000000000E+01   0.00000000000000E+00
     -4.68686738042276E-09   6.34126513290133E-08  -7.65585683344610E-07  -7.06859899396020E-07  -4.95642694208206E-13
      8.00000000000000E-01   8.00000000000000E-01   0.00000000000000E+00   2.29782654617564E-12   1.13661248972848E-10
      2.07548068109746E-17   1.15959096273831E-10   1.53109061467517E-13
      1.03906250000000E-11
      8.00000000000000E-01   8.00000000000000E-01   0.00000000000000E+00   5.70004369694540E-13   4.67089942739458E-11
      2.07547122924842E-17   4.72790193983527E-11   1.45463661703643E-13   8.00000000000000E-01   8.00000000000000E-01
      0.00000000000000E+00   5.71292572785226E-13   4.67757800322377E-11   2.07552542425165E-17   4.73470933602772E-11
      2.04250651464443E-13   8.00000000000000E-01   8.00000000000000E-01   0.00000000000000E+00   9.00378580555137E-14
      7.53299418243067E-12   2.07550327149351E-17   7.62305279551890E-12   1.81102027706097E-13   0.00000000000000E+00
      0.00000000000000E+00   0.00000000000000E+00   1.62032191137713E-09   2.65946409621191E-07   5.21966193214546E-07
      7.89532924747114E-07  -1.88282461066002E-13  -1.70000000000000E+01  -1.70000000000000E+01   0.00000000000000E+00
     -6.35275174064708E-08   5.26894873919504E-07  -1.25450227243163E-06  -7.91134915918600E-07  -4.95642814876457E-13
      8.00000000000000E-01   8.00000000000000E-01   0.00000000000000E+00   1.84322029493565E-11   1.48130978222944E-09
      2.07548374300933E-17   1.49974200593364E-09   1.53108935068275E-13
      1.60859375000000E-11
      8.00000000000000E-01   8.00000000000000E-01   0.00000000000000E+00   2.37416103625185E-13   1.00855677168326E-10
      2.07552056274957E-17   1.01093114027157E-10   1.45463662149948E-13   8.00000000000000E-01   8.00000000000000E-01
      0.00000000000000E+00   2.38140192667329E-13   1.01016393421583E-10   2.07550429042759E-17   1.01254554369294E-10
      2.04250651914955E-13   8.00000000000000E-01   8.00000000000000E-01   0.00000000000000E+00   3.63322664547606E-14
      1.58961113871195E-11   2.07550683995855E-17   1.59324644086426E-11   1.81102027776571E-13   0.00000000000000E+00
      0.00000000000000E+00   0.00000000000000E+00   8.62837415012079E-10   1.44169497827325E-07   7.71877582409772E-07
      9.16909917652109E-07  -1.88281186139142E-13  -1.70000000000000E+01  -1.70000000000000E+01   0.00000000000000E+00
     -1.53791421147391E-07   2.77637370660277E-07  -1.04428357432435E-06  -9.20437624811460E-07  -4.95643444262753E-13
      8.00000000000000E-01   8.00000000000000E-01   0.00000000000000E+00   8.31013310442884E-12   3.30111687268927E-09
      2.07562942528971E-17   3.30942702654999E-09   1.53108288560423E-13
      2.46289062500000E-11
      8.00000000000000E-01   8.00000000000000E-01   0.00000000000000E+00  -4.83936083492044E-14   1.10455778940988E-10
      2.07549226113955E-17   1.10407406087561E-10   1.45463663144722E-13   8.00000000000000E-01   8.00000000000000E-01
      0.00000000000000E+00  -4.79782906956775E-14   1.10656322475394E-10   2.07553556344872E-17   1.10608364940054E-10
      2.04250652928770E-13   8.00000000000000E-01   8.00000000000000E-01   0.00000000000000E+00  -8.19478966600666E-15
      1.70944178361217E-11   2.07550518911762E-17   1.70862438015076E-11   1.81102027931308E-13   0.00000000000000E+00
      0.00000000000000E+00   0.00000000000000E+00   5.98978317291947E-12   6.32543784909456E-09   9.63811526909018E-07
      9.70142954541285E-07  -1.88278199027010E-13  -1.70000000000000E+01  -1.70000000000000E+01   0.00000000000000E+00
     -1.90286679130123E-07   5.14439387074720E-10  -7.84382172463938E-07  -9.74154412206986E-07  -4.95644941281751E-13
      8.00000000000000E-01   8.00000000000000E-01   0.00000000000000E+00  -9.69337193408139E-13   3.77432496730752E-09
      2.07560476961232E-17   3.77335565087016E-09   1.53106796303962E-13
      3.74433593750000E-11
      8.00000000000000E-01   8.00000000000000E-01   0.00000000000000E+00  -3.14629112618837E-14   9.70057848270141E-11
      2.07551946543351E-17   9.69743426709468E-11   1.45463664706253E-13   8.00000000000000E-01   8.00000000000000E-01
      0.00000000000000E+00  -3.17307776605067E-14   9.72044744444562E-11   2.07548676260184E-17   9.71727644216633E-11
      2.04250654546994E-13   8.00000000000000E-01   8.00000000000000E-01   0.00000000000000E+00  -5.28434694521493E-15
      1.48143025976209E-11   2.07549681225969E-17   1.48090390056438E-11   1.81102028170938E-13   0.00000000000000E+00
      0.00000000000000E+00   0.00000000000000E+00  -2.79164219656322E-12   5.44480885157178E-09   9.64958074576644E-07
      9.70400091786019E-07  -1.88273460702536E-13  -1.70000000000000E+01  -1.70000000000000E+01   0.00000000000000E+00
     -1.87978169933290E-07  -2.00662034999682E-14  -7.86151412952106E-07  -9.74129602951600E-07  -4.95647365843006E-13
      8.00000000000000E-01   8.00000000000000E-01   0.00000000000000E+00  -5.45405119483868E-13   3.52110040385352E-09
      2.07540759170379E-17   3.52055501948811E-09   1.53104479121355E-13
      5.66650390625000E-11
      8.00000000000000E-01   8.00000000000000E-01   0.00000000000000E+00  -3.56540572561424E-14   7.90244485859214E-11
      2.07552426619127E-17   7.89888152839080E-11   1.45463666958261E-13   8.00000000000000E-01   8.00000000000000E-01
      0.00000000000000E+00  -3.58570657816180E-14   7.92188529558867E-11   2.07553082367717E-17   7.91830166454134E-11
      2.04250656932128E-13   8.00000000000000E-01   8.00000000000000E-01   0.00000000000000E+00  -5.84158752866416E-15
      1.18852594906009E-11   2.07549480350513E-17   1.18794386580202E-11   1.81102028512261E-13   0.00000000000000E+00
      0.00000000000000E+00   0.00000000000000E+00  -5.17282078743809E-12   4.62038599161244E-09   9.63944375516765E-07
      9.68559588687590E-07  -1.88266660658149E-13  -1.70000000000000E+01  -1.70000000000000E+01   0.00000000000000E+00
     -1.83122351535801E-07  -2.00663875046276E-14  -7.88788972214017E-07  -9.71911343816206E-07  -4.95650932712131E-13
      8.00000000000000E-01   8.00000000000000E-01   0.00000000000000E+00  -6.98830270913350E-13   3.18240266754489E-09
      2.07555537324410E-17   3.18170385802953E-09   1.53101240967629E-13
      8.54975585937500E-11
      8.00000000000000E-01   8.00000000000000E-01   0.00000000000000E+00  -3.35115502081698E-14   5.19300633822784E-11
      2.07554205185572E-17   5.18965725874907E-11   1.45463669953616E-13   8.00000000000000E-01   8.00000000000000E-01
      0.00000000000000E+00  -3.33591084343204E-14   5.21166352280373E-11   2.07550582602151E-17   5.20832968746613E-11
      2.04250660230930E-13   8.00000000000000E-01   8.00000000000000E-01   0.00000000000000E+00  -5.16620706573803E-15
      7.58234810727397E-12   2.07549529326993E-17   7.57720265516116E-12   1.81102028958099E-13   0.00000000000000E+00
      0.00000000000000E+00   0.00000000000000E+00  -7.40004935443101E-12   3.60804620067534E-09   9.60903635006537E-07
      9.64504281157858E-07  -1.88257076876581E-13  -1.70000000000000E+01  -1.70000000000000E+01   0.00000000000000E+00
     -1.75347905466391E-07  -2.00665704377352E-14  -7.91905504066355E-07  -9.67253429599317E-07  -4.95656100893639E-13
      8.00000000000000E-01   8.00000000000000E-01   0.00000000000000E+00  -6.85177792227746E-13   2.63827652638041E-09
      2.07555936244519E-17   2.63759136934378E-09   1.53096818627574E-13
      1.28746337890625E-10
      8.00000000000000E-01   8.00000000000000E-01   0.00000000000000E+00  -3.02970045557052E-14   1.44362774245143E-11
      2.07550835510842E-17   1.44060011750421E-11   1.45463673165688E-13   8.00000000000000E-01   8.00000000000000E-01
      0.00000000000000E+00  -3.03455836806555E-14   1.46126631605738E-11   2.07551541076549E-17   1.45823383320473E-11
      2.04250664357591E-13   8.00000000000000E-01   8.00000000000000E-01   0.00000000000000E+00  -4.65623878550152E-15
      1.73656196912512E-12   2.07549212902048E-17   1.73192648526091E-12   1.81102029416805E-13   0.00000000000000E+00
      0.00000000000000E+00   0.00000000000000E+00  -8.37920781388320E-12   2.48664178264976E-09   9.54806680086320E-07
      9.57284942661156E-07  -1.88243873788009E-13  -1.70000000000000E+01  -1.70000000000000E+01   0.00000000000000E+00
     -1.63701398254383E-07  -2.00668138086518E-14  -7.95465636105552E-07  -9.59167054426749E-07  -4.95663431584660E-13
      8.00000000000000E-01   8.00000000000000E-01   0.00000000000000E+00  -6.51838090363126E-13   1.85204331693567E-09
      2.07543898380162E-17   1.85139149959970E-09   1.53090938432585E-13
      1.93619506835937E-10
      8.00000000000000E-01   8.00000000000000E-01   0.00000000000000E+00  -2.54435137614598E-14  -3.44699011889649E-11
      2.07551059546204E-17  -3.44953239476204E-11   1.45463674401352E-13   8.00000000000000E-01   8.00000000000000E-01
      0.00000000000000E+00  -2.54487043479484E-14  -3.43028237637566E-11   2.07555875123937E-17  -3.43282517125170E-11
      2.04250669473642E-13   8.00000000000000E-01   8.00000000000000E-01   0.00000000000000E+00  -3.89987300017026E-15
     -5.79310690570934E-12   2.07549381071450E-17  -5.79698602377140E-12   1.81102029531652E-13   0.00000000000000E+00
      0.00000000000000E+00   0.00000000000000E+00  -8.83419543534793E-12   1.42103444444760E-09   9.44443526340028E-07
      9.45855726589041E-07  -1.88226215612902E-13  -1.70000000000000E+01  -1.70000000000000E+01   0.00000000000000E+00
     -1.47516576014211E-07  -2.00671401625378E-14  -7.99021290773619E-07  -9.46537886854971E-07  -4.95673521854642E-13
      8.00000000000000E-01   8.00000000000000E-01   0.00000000000000E+00  -5.95160267361096E-13   7.57375967123609E-10
      2.07553658170659E-17   7.56780827611614E-10   1.53083364060898E-13
      2.42274383544922E-10
      8.00000000000000E-01   8.00000000000000E-01   0.00000000000000E+00  -2.18932555111347E-14  -6.55198822930285E-11
      2.07549660468229E-17  -6.55417547935736E-11   1.45463672299733E-13   8.00000000000000E-01   8.00000000000000E-01
      0.00000000000000E+00  -2.19112781042147E-14  -6.53537812934811E-11   2.07552206893160E-17  -6.53756718163647E-11
      2.04250673925543E-13   8.00000000000000E-01   8.00000000000000E-01   0.00000000000000E+00  -3.35546991879942E-15
     -1.05302984021264E-11   2.07550137677480E-17  -1.05336331170314E-11   1.81102029139265E-13   0.00000000000000E+00
      0.00000000000000E+00   0.00000000000000E+00  -9.06596012325641E-12   9.40612602459245E-10   9.36184446642288E-07
      9.37115993284624E-07  -1.88214389852199E-13  -1.70000000000000E+01  -1.70000000000000E+01   0.00000000000000E+00
     -1.36351831623211E-07  -2.00673610769016E-14  -8.00625084867286E-07  -9.36976936557858E-07  -4.95680426270751E-13
      8.00000000000000E-01   8.00000000000000E-01   0.00000000000000E+00  -5.52394574766797E-13   2.94670678509703E-12
      2.07549260155043E-17   2.39433296525625E-12   1.53078440758409E-13
      3.15256698608398E-10
      8.00000000000000E-01   8.00000000000000E-01   0.00000000000000E+00  -1.64507092136371E-14  -1.03196061514542E-10
      2.07550867515893E-17  -1.03212491468669E-10   1.45463664465314E-13   8.00000000000000E-01   8.00000000000000E-01
      0.00000000000000E+00  -1.64128913933967E-14  -1.03024504978921E-10   2.07550950248961E-17  -1.03040897115220E-10
      2.04250685742413E-13   8.00000000000000E-01   8.00000000000000E-01   0.00000000000000E+00  -2.44008218112714E-15
     -1.62257369173419E-11   2.07552591113841E-17  -1.62281562442639E-11   1.81102027819103E-13   0.00000000000000E+00
      0.00000000000000E+00   0.00000000000000E+00  -9.40938397145410E-12   5.08317012591475E-10   9.23245045677199E-07
      9.23743953305819E-07  -1.88198564893496E-13  -1.70000000000000E+01  -1.70000000000000E+01   0.00000000000000E+00
     -1.20597732665067E-07  -2.00676589753229E-14  -8.01907369827960E-07  -9.22505122560686E-07  -4.95689799807344E-13
      8.00000000000000E-01   8.00000000000000E-01   0.00000000000000E+00  -4.81275317280964E-13  -1.01586794574029E-09
      2.07552557425488E-17  -1.01634920030232E-09   1.53071986674010E-13
      3.69993434906006E-10
      8.00000000000000E-01   8.00000000000000E-01   0.00000000000000E+00  -1.24188277554339E-14  -1.24424093523309E-10
      2.07549116382349E-17  -1.24436491596153E-10   1.45463655284606E-13   8.00000000000000E-01   8.00000000000000E-01
      0.00000000000000E+00  -1.24301352520518E-14  -1.24247548996173E-10   2.07553682584596E-17  -1.24259958376057E-10
      2.04250701207111E-13   8.00000000000000E-01   8.00000000000000E-01   0.00000000000000E+00  -1.74402861503356E-15
     -1.93937605767735E-11   2.07551311501151E-17  -1.93954838502574E-11   1.81102026316952E-13   0.00000000000000E+00
      0.00000000000000E+00   0.00000000000000E+00  -9.60249025264868E-12   3.24335347749757E-10   9.13192721379821E-07
      9.13507454237319E-07  -1.88188036024521E-13  -1.70000000000000E+01  -1.70000000000000E+01   0.00000000000000E+00
     -1.09295626924849E-07  -2.00678576783619E-14  -8.02262780667375E-07  -9.11558427660082E-07  -4.95696090845616E-13
      8.00000000000000E-01   8.00000000000000E-01   0.00000000000000E+00  -4.19576534529196E-13  -1.68051508763150E-09
      2.07550853835162E-17  -1.68093464341095E-09   1.53067744061467E-13
      4.11045987129211E-10
      8.00000000000000E-01   8.00000000000000E-01   0.00000000000000E+00  -9.41126669159414E-15  -1.36410422585622E-10
      2.07547753881576E-17  -1.36419813097538E-10   1.45463646827642E-13   8.00000000000000E-01   8.00000000000000E-01
      0.00000000000000E+00  -9.47040780632989E-15  -1.36232854932467E-10   2.07554515415891E-17  -1.36242304584821E-10
      2.04250717598402E-13   8.00000000000000E-01   8.00000000000000E-01   0.00000000000000E+00  -1.46534378175824E-15
     -2.11574861763453E-11   2.07551496025812E-17  -2.11589307649774E-11   1.81102024949191E-13   0.00000000000000E+00
      0.00000000000000E+00   0.00000000000000E+00  -9.71656087693277E-12   2.33040702498921E-10   9.05505388845527E-07
      9.05728712987149E-07  -1.88180814258548E-13  -1.70000000000000E+01  -1.70000000000000E+01   0.00000000000000E+00
     -1.01015424016868E-07  -2.00679934704223E-14  -8.02303333573723E-07  -9.03318777658585E-07  -4.95700407494764E-13
      8.00000000000000E-01   8.00000000000000E-01   0.00000000000000E+00  -3.68113181382951E-13  -2.11574618768901E-09
      2.07551553552750E-17  -2.11611428011523E-09   1.53064832378078E-13
      4.72624815464020E-10
      8.00000000000000E-01   8.00000000000000E-01   0.00000000000000E+00  -5.04191259101750E-15  -1.48220741061117E-10
      2.07549642179628E-17  -1.48225762218744E-10   1.45463632143819E-13   8.00000000000000E-01   8.00000000000000E-01
      0.00000000000000E+00  -5.04074392941164E-15  -1.48050705614292E-10   2.07552513750246E-17  -1.48055725602970E-10
      2.04250750715162E-13   8.00000000000000E-01   8.00000000000000E-01   0.00000000000000E+00  -8.59147787642123E-16
     -2.28506943600812E-11   2.07551905143959E-17  -2.28515327526783E-11   1.81102022594207E-13   0.00000000000000E+00
      0.00000000000000E+00   0.00000000000000E+00  -9.84195093519190E-12   1.42684380955026E-10   8.93800247261467E-07
      8.93933089691487E-07  -1.88170967513655E-13  -1.70000000000000E+01  -1.70000000000000E+01   0.00000000000000E+00
     -8.88446189506293E-08  -2.00681766526496E-14  -8.02113831022823E-07  -8.90958470041629E-07  -4.95706252440853E-13
      8.00000000000000E-01   8.00000000000000E-01   0.00000000000000E+00  -2.83383707424153E-13  -2.65520326633611E-09
      2.07548666847108E-17  -2.65548662928867E-09   1.53060814501321E-13
      5.18808936715126E-10
      8.00000000000000E-01   8.00000000000000E-01   0.00000000000000E+00  -1.92386890357717E-15  -1.52407442135576E-10
      2.07548325400357E-17  -1.52409345249647E-10   1.45463619926318E-13   8.00000000000000E-01   8.00000000000000E-01
      0.00000000000000E+00  -1.97766793151129E-15  -1.52252337448043E-10   2.07554820708200E-17  -1.52254294360493E-10
      2.04250782421842E-13   8.00000000000000E-01   8.00000000000000E-01   0.00000000000000E+00  -4.48867192974419E-16
     -2.34040421338209E-11   2.07549473206528E-17  -2.34044702460665E-11   1.81102020647346E-13   0.00000000000000E+00
      0.00000000000000E+00   0.00000000000000E+00  -9.90665196020064E-12   9.96452965841372E-11   8.84922366411183E-07
      8.85012105055807E-07  -1.88164303159509E-13  -1.70000000000000E+01  -1.70000000000000E+01   0.00000000000000E+00
     -7.98941136623474E-08  -2.00682983193291E-14  -8.01825970018287E-07  -8.81720103748933E-07  -4.95710148672389E-13
      8.00000000000000E-01   8.00000000000000E-01   0.00000000000000E+00  -2.14954691910696E-13  -2.96371826308099E-09
      2.07550516889121E-17  -2.96393319701785E-09   1.53058028836391E-13
      5.88085118591785E-10
      8.00000000000000E-01   8.00000000000000E-01   0.00000000000000E+00   2.37704450557838E-15  -1.51786596275445E-10
      2.07548361977559E-17  -1.51784198476103E-10   1.45463600455385E-13   8.00000000000000E-01   8.00000000000000E-01
      0.00000000000000E+00   2.34584587060414E-15  -1.51670027504185E-10   2.07554739917186E-17  -1.51667660902841E-10
      2.04250840722154E-13   8.00000000000000E-01   8.00000000000000E-01   0.00000000000000E+00   3.77046263398052E-16
     -2.31837322045479E-11   2.07550901565911E-17  -2.31833344031944E-11   1.81102017560315E-13   0.00000000000000E+00
      0.00000000000000E+00   0.00000000000000E+00  -9.94118536459436E-12   5.86519854470208E-11   8.71531419887994E-07
      8.71580130688077E-07  -1.88155362652711E-13  -1.70000000000000E+01  -1.70000000000000E+01   0.00000000000000E+00
     -6.67540015056110E-08  -2.00684563788476E-14  -8.01236609472388E-07  -8.67990631046455E-07  -4.95715227221349E-13
      8.00000000000000E-01   8.00000000000000E-01   0.00000000000000E+00  -1.08540364495061E-13  -3.26275592823236E-09
      2.07551000179690E-17  -3.26286444784176E-09   1.53054131136204E-13
      6.91999391406774E-10
      8.00000000000000E-01   8.00000000000000E-01   0.00000000000000E+00   7.46339644144311E-15  -1.37580469562556E-10
      2.07549390711364E-17  -1.37572985411176E-10   1.45463570673495E-13   8.00000000000000E-01   8.00000000000000E-01
      0.00000000000000E+00   7.43123694083321E-15  -1.37548351983147E-10   2.07552251078560E-17  -1.37540899990981E-10
      2.04250950170983E-13   8.00000000000000E-01   8.00000000000000E-01   0.00000000000000E+00   1.12085012265735E-15
     -2.08496763206682E-11   2.07550491644065E-17  -2.08485347154964E-11   1.81102012862716E-13   0.00000000000000E+00
      0.00000000000000E+00   0.00000000000000E+00  -9.77086087468894E-12   2.71466687992867E-11   8.51534924271177E-07
      8.51552300079102E-07  -1.88144093636694E-13  -1.70000000000000E+01  -1.70000000000000E+01   0.00000000000000E+00
     -4.77920298235940E-08  -2.00686406448526E-14  -8.00122050133697E-07  -8.47914100025931E-07  -4.95721174177287E-13
      8.00000000000000E-01   8.00000000000000E-01   0.00000000000000E+00   4.65076077585946E-14  -3.34228416141571E-09
      2.07552885512988E-17  -3.34223763305267E-09   1.53048734106788E-13
      7.69935096018016E-10
      8.00000000000000E-01   8.00000000000000E-01   0.00000000000000E+00   1.01826994069943E-14  -1.18723237028121E-10
      2.07552220872366E-17  -1.18713033573492E-10   1.45463549382891E-13   8.00000000000000E-01   8.00000000000000E-01
      0.00000000000000E+00   1.01504969386452E-14  -1.18761001953596E-10   2.07553293677049E-17  -1.18750830701328E-10
      2.04251047300158E-13   8.00000000000000E-01   8.00000000000000E-01   0.00000000000000E+00   1.55176028970101E-15
     -1.78730931025387E-11   2.07551305683268E-17  -1.78715205871185E-11   1.81102009515065E-13   0.00000000000000E+00
      0.00000000000000E+00   0.00000000000000E+00  -9.47341107831293E-12   1.60838565387282E-11   8.36858811315699E-07
      8.36865421761159E-07  -1.88137141087927E-13  -1.70000000000000E+01  -1.70000000000000E+01   0.00000000000000E+00
     -3.43068116750102E-08  -2.00687392115593E-14  -7.99171567710859E-07  -8.33478399454608E-07  -4.95724370893331E-13
      8.00000000000000E-01   8.00000000000000E-01   0.00000000000000E+00   1.47969178685323E-13  -3.13183491162298E-09
      2.07550395262781E-17  -3.13168692168926E-09   1.53044905783143E-13
      8.86838652934879E-10
      8.00000000000000E-01   8.00000000000000E-01   0.00000000000000E+00   1.22839443682864E-14  -8.27115761965413E-11
      2.07546450818756E-17  -8.26992714975279E-11   1.45463521641845E-13   8.00000000000000E-01   8.00000000000000E-01
      0.00000000000000E+00   1.22456452990851E-14  -8.28330131853636E-11   2.07548089166371E-17  -8.28207467852556E-11
      2.04251211934351E-13   8.00000000000000E-01   8.00000000000000E-01   0.00000000000000E+00   1.83961199100405E-15
     -1.22750683083190E-11   2.07549867576812E-17  -1.22732079413412E-11   1.81102005153107E-13   0.00000000000000E+00
      0.00000000000000E+00   0.00000000000000E+00  -8.69901974317548E-12   8.21687090381813E-12   8.16006168671992E-07
      8.16005686523152E-07  -1.88128712889255E-13  -1.70000000000000E+01  -1.70000000000000E+01   0.00000000000000E+00
     -1.57021709084979E-08  -2.00688284102331E-14  -7.97643165418435E-07  -8.13345356395761E-07  -4.95727282769947E-13
      8.00000000000000E-01   8.00000000000000E-01   0.00000000000000E+00   2.54896841630706E-13  -2.48279181876398E-09
      2.07550918202465E-17  -2.48253690116726E-09   1.53039256929899E-13
      9.74516320622526E-10
      8.00000000000000E-01   8.00000000000000E-01   0.00000000000000E+00   1.23948220666461E-14  -5.32866019336368E-11
      2.07548787187532E-17  -5.32741863566914E-11   1.45463505231778E-13   8.00000000000000E-01   8.00000000000000E-01
      0.00000000000000E+00   1.24001503733869E-14  -5.34418670365977E-11   2.07552585175234E-17  -5.34294461309658E-11
      2.04251346901340E-13   8.00000000000000E-01   8.00000000000000E-01   0.00000000000000E+00   1.87982237152486E-15
     -7.74049878146151E-12   2.07549701626511E-17  -7.73859820411983E-12   1.81102002561451E-13   0.00000000000000E+00
      0.00000000000000E+00   0.00000000000000E+00  -7.87437718091423E-12   5.80173099735252E-12   8.01732651628842E-07
      8.01730578982659E-07  -1.88123682079508E-13  -1.70000000000000E+01  -1.70000000000000E+01   0.00000000000000E+00
     -3.34541469085006E-09  -2.00688532735494E-14  -7.96442549920346E-07  -7.99787984680049E-07  -4.95728111934973E-13
      8.00000000000000E-01   8.00000000000000E-01   0.00000000000000E+00   2.92641622288276E-13  -1.82844473429407E-09