DF-ISE text

Info {
  version   = 1.0
  type      = xyplot
  datasets  = [
    "time"
    "Ntop OuterVoltage" "Ntop InnerVoltage" "Ntop QuasiFermiPotential" "Ntop DisplacementCurrent" "Ntop eCurrent"
    "Ntop hCurrent" "Ntop TotalCurrent" "Ntop Charge" "Ptop OuterVoltage" "Ptop InnerVoltage"
    "Ptop QuasiFermiPotential" "Ptop DisplacementCurrent" "Ptop eCurrent" "Ptop hCurrent" "Ptop TotalCurrent"
    "Ptop Charge" "Pbot OuterVoltage" "Pbot InnerVoltage" "Pbot QuasiFermiPotential" "Pbot DisplacementCurrent"
    "Pbot eCurrent" "Pbot hCurrent" "Pbot TotalCurrent" "Pbot Charge" ]
  functions = [
    Time
    OuterVoltage InnerVoltage QuasiFermiPotential DisplacementCurrent eCurrent
    hCurrent TotalCurrent Charge OuterVoltage InnerVoltage
    QuasiFermiPotential DisplacementCurrent eCurrent hCurrent TotalCurrent
    Charge OuterVoltage InnerVoltage QuasiFermiPotential DisplacementCurrent
    eCurrent hCurrent TotalCurrent Charge ]
}

Data {
      5.00000000000000E-13
      8.00000000000000E-01   8.00000000000000E-01   0.00000000000000E+00   1.12427113009291E-14   7.88775969688543E-12
     -7.31577415912046E-12   5.83228249065897E-13   2.32745367027468E-13   0.00000000000000E+00   0.00000000000000E+00
      0.00000000000000E+00  -1.04968013713391E-13  -1.97181352815108E-16   1.99761269756348E-11   1.98709617805686E-11
     -7.40436337748698E-14  -4.00000000000000E+01  -4.00000000000000E+01   0.00000000000000E+00  -3.96662512456211E-13
      1.45899212048380E-11  -3.46474487220162E-11  -2.04541900296344E-11  -1.58701733252598E-13
      1.25000000000000E-12
      8.00000000000000E-01   8.00000000000000E-01   0.00000000000000E+00   9.68458640029259E-14   3.55606201008323E-11
     -3.37572288700197E-11   1.90023709481557E-12   2.32745367027795E-13   0.00000000000000E+00   0.00000000000000E+00
      0.00000000000000E+00  -2.75348354125728E-14  -1.97181352812756E-16   2.11455843076447E-11   2.11178522908793E-11
     -7.40436337742426E-14  -4.00000000000000E+01  -4.00000000000000E+01   0.00000000000000E+00  -2.27620700762514E-12
      6.73290212736442E-11  -8.80709036517139E-11  -2.30180893856949E-11  -1.58701733253553E-13
      2.37500000000000E-12
      8.00000000000000E-01   8.00000000000000E-01   0.00000000000000E+00   7.26192807302581E-13   2.96001200406960E-10
     -2.79310684809322E-10   1.74167084049404E-11   2.32745367032545E-13   0.00000000000000E+00   0.00000000000000E+00
      0.00000000000000E+00   1.10678152569593E-12  -1.97181352784885E-16   3.49922892418802E-11   3.60988735862233E-11
     -7.40436337648232E-14  -4.00000000000000E+01  -4.00000000000000E+01   0.00000000000000E+00  -2.46750870547335E-11
      5.56951131250552E-10  -5.85791626186982E-10  -5.35155819911641E-11  -1.58701733267723E-13
      4.06250000000000E-12
      8.00000000000000E-01   8.00000000000000E-01   0.00000000000000E+00   1.08958321683644E-11   4.58351440049988E-09
     -4.23720783198176E-09   3.57202400686487E-10   2.32745367171367E-13   0.00000000000000E+00   0.00000000000000E+00
      0.00000000000000E+00   1.60228470591552E-11  -1.97181352139030E-16   3.55517699994806E-10   3.71540349872609E-10
     -7.40436334795673E-14  -4.00000000000000E+01  -4.00000000000000E+01   0.00000000000000E+00  -5.20685232239908E-10
      8.44466307805640E-09  -8.65272059637559E-09  -7.28742750559091E-10  -1.58701733691800E-13
      6.59375000000000E-12
      8.00000000000000E-01   8.00000000000000E-01   0.00000000000000E+00   2.16040011513997E-10   9.49528118287547E-08
     -8.47967089724502E-08   1.03721428678185E-08   2.32745373037595E-13   0.00000000000000E+00   0.00000000000000E+00
      0.00000000000000E+00   3.24153653914925E-10  -1.97181332363485E-16   1.01569291555645E-08   1.04810826122981E-08
     -7.40436209672929E-14  -4.00000000000000E+01  -4.00000000000000E+01   0.00000000000000E+00  -1.53038143509120E-08
      1.68848889734802E-07  -1.74398300864007E-07  -2.08532254801165E-08  -1.58701752070302E-13
      1.03906250000000E-11
      8.00000000000000E-01   8.00000000000000E-01   0.00000000000000E+00   1.80093820449603E-09   8.43586890858240E-07
     -7.05782769224218E-07   1.39605059838518E-07   2.32745496566978E-13   0.00000000000000E+00   0.00000000000000E+00
      0.00000000000000E+00   2.69199036093710E-09  -1.97181070973564E-16   1.39494823933497E-07   1.42186814097253E-07
     -7.40433512551549E-14  -4.00000000000000E+01  -4.00000000000000E+01   0.00000000000000E+00  -2.06838533387569E-07
      1.40296282514384E-06  -1.47791616569204E-06  -2.81791873935770E-07  -1.58702145311823E-13
      1.60859375000000E-11
      8.00000000000000E-01   8.00000000000000E-01   0.00000000000000E+00   1.04910312552375E-09   7.18247350846036E-07
     -3.77679743555848E-07   3.41616710415712E-07   2.32746140333826E-13   0.00000000000000E+00   0.00000000000000E+00
      0.00000000000000E+00   1.28803883467367E-09  -1.97180670125710E-16   3.36605897112733E-07   3.37893935750226E-07
     -7.40419570415979E-14  -4.00000000000000E+01  -4.00000000000000E+01   0.00000000000000E+00  -4.96495111651731E-07
      7.39264967309515E-07  -9.22280501823721E-07  -6.79510646165938E-07  -1.58704183292228E-13
      2.46289062500000E-11
      8.00000000000000E-01   8.00000000000000E-01   0.00000000000000E+00   1.49413060537566E-10   4.56851780248061E-07
     -9.43422273181373E-09   4.47566970576785E-07   2.32747751482419E-13   0.00000000000000E+00   0.00000000000000E+00
      0.00000000000000E+00  -1.83379520580118E-10  -1.97180546843099E-16   3.94984148491588E-07   3.94800768773827E-07
     -7.40387650722837E-14  -4.00000000000000E+01  -4.00000000000000E+01   0.00000000000000E+00  -6.07471425776239E-07
      1.36984504538013E-09  -2.36266158619751E-07  -8.42367739350610E-07  -1.58708986410136E-13
      3.74433593750000E-11
      8.00000000000000E-01   8.00000000000000E-01   0.00000000000000E+00   1.13884158777387E-10   4.95245247171173E-07
     -7.95402619170812E-09   4.87405105138242E-07   2.32750646325776E-13   0.00000000000000E+00   0.00000000000000E+00
      0.00000000000000E+00  -1.44989627275483E-10  -1.97180618729166E-16   3.55868184100288E-07   3.55723194275831E-07
     -7.40339621300893E-14  -4.00000000000000E+01  -4.00000000000000E+01   0.00000000000000E+00  -5.93862624711283E-07
     -5.94236547941515E-15  -2.49265668760423E-07  -8.43128299414072E-07  -1.58716684195687E-13
      5.66650390625000E-11
      8.00000000000000E-01   8.00000000000000E-01   0.00000000000000E+00   8.13052585590108E-11   5.37726361499418E-07
     -6.88850616489430E-09   5.30919160593083E-07   2.32755483807984E-13   0.00000000000000E+00   0.00000000000000E+00
      0.00000000000000E+00  -1.08349724408420E-10  -1.97180702428549E-16   3.09902851851495E-07   3.09794501929906E-07
     -7.40275798489725E-14  -4.00000000000000E+01  -4.00000000000000E+01   0.00000000000000E+00  -5.73713783101783E-07
     -5.94273690979746E-15  -2.66999873478468E-07  -8.40713662522988E-07  -1.58727903959012E-13
      8.54975585937500E-11
      8.00000000000000E-01   8.00000000000000E-01   0.00000000000000E+00   5.11804998218289E-11   5.79721826919767E-07
     -5.55014287967891E-09   5.74222864539910E-07   2.32763444792026E-13   0.00000000000000E+00   0.00000000000000E+00
      0.00000000000000E+00  -7.37801414223704E-11  -1.97180791088817E-16   2.60533436817922E-07   2.60459656479319E-07
     -7.40193870342106E-14  -4.00000000000000E+01  -4.00000000000000E+01   0.00000000000000E+00  -5.47180168738404E-07
     -5.94312706151636E-15  -2.87502346337697E-07  -8.34682521019228E-07  -1.58744057757813E-13
      1.28746337890625E-10
      8.00000000000000E-01   8.00000000000000E-01   0.00000000000000E+00   2.56731421539375E-11   6.14576729927460E-07
     -4.01207541354417E-09   6.10590327656070E-07   2.32776212736483E-13   0.00000000000000E+00   0.00000000000000E+00
      0.00000000000000E+00  -4.41462189363717E-11  -1.97180875516965E-16   2.12773382645160E-07   2.12729236229042E-07
     -7.40092067567960E-14  -4.00000000000000E+01  -4.00000000000000E+01   0.00000000000000E+00  -5.14697114321851E-07
     -5.94368232030624E-15  -3.08622443619580E-07  -8.23319563885113E-07  -1.58767005979687E-13
      1.93619506835937E-10
      8.00000000000000E-01   8.00000000000000E-01   0.00000000000000E+00   7.31478736467754E-12   6.34427011007140E-07
     -2.46399168163871E-09   6.31970334112866E-07   2.32795965778145E-13   0.00000000000000E+00   0.00000000000000E+00
      0.00000000000000E+00  -2.31478604083924E-11  -1.97180946027766E-16   1.72246066615756E-07   1.72222918558167E-07
     -7.39968005286639E-14  -4.00000000000000E+01  -4.00000000000000E+01   0.00000000000000E+00  -4.77674181333715E-07
     -5.94446175590475E-15  -3.26519065392856E-07  -8.04193252671032E-07  -1.58799165249481E-13
      2.42274383544922E-10
      8.00000000000000E-01   8.00000000000000E-01   0.00000000000000E+00   1.33908941361010E-12   6.36796859243217E-07
     -1.71691217332996E-09   6.35081286159300E-07   2.32810754162983E-13   0.00000000000000E+00   0.00000000000000E+00
      0.00000000000000E+00  -1.66133392548221E-11  -1.97180977836570E-16   1.54005552537688E-07   1.53988939001252E-07
     -7.39888859668782E-14  -4.00000000000000E+01  -4.00000000000000E+01   0.00000000000000E+00  -4.55851785609484E-07
     -5.94501253924688E-15  -3.33218433606056E-07  -7.89070225160552E-07  -1.58821868196105E-13
      2.78765541076660E-10
      8.00000000000000E-01   8.00000000000000E-01   0.00000000000000E+00  -9.94497708610154E-13   6.35510819623354E-07
     -1.31309328663815E-09   6.34196731839008E-07   2.32821709726826E-13   0.00000000000000E+00   0.00000000000000E+00
      0.00000000000000E+00  -1.42030507703638E-11  -1.97180996984804E-16   1.43325198016068E-07   1.43310994768117E-07
     -7.39834706644791E-14  -4.00000000000000E+01  -4.00000000000000E+01   0.00000000000000E+00  -4.41513761747458E-07
     -5.94540984595609E-15  -3.35993958914260E-07  -7.77507726607128E-07  -1.58838239062347E-13
      3.33502277374268E-10
      8.00000000000000E-01   8.00000000000000E-01   0.00000000000000E+00  -2.63846529335298E-12   6.31522110085040E-07
     -8.80687698983934E-10   6.30638783920763E-07   2.32837890312544E-13   0.00000000000000E+00   0.00000000000000E+00
      0.00000000000000E+00  -1.26547590140261E-11  -1.97181023197503E-16   1.29370756472195E-07   1.29358101516000E-07
     -7.39760207130787E-14  -4.00000000000000E+01  -4.00000000000000E+01   0.00000000000000E+00  -4.22081381890888E-07
     -5.94598345494117E-15  -3.37915497599894E-07  -7.59996885436765E-07  -1.58861869599466E-13
      3.74554829597473E-10
      8.00000000000000E-01   8.00000000000000E-01   0.00000000000000E+00  -3.00800583739949E-12   6.27935711513594E-07
     -6.56168889901231E-10   6.27276534617855E-07   2.32849838317578E-13   0.00000000000000E+00   0.00000000000000E+00
      0.00000000000000E+00  -1.24327356506864E-11  -1.97181042640637E-16   1.19547892027777E-07   1.19535459094946E-07
     -7.39709183967255E-14  -4.00000000000000E+01  -4.00000000000000E+01   0.00000000000000E+00  -4.08639631162389E-07
     -5.94639738592442E-15  -3.38172356604015E-07  -7.46811993712802E-07  -1.58878919920854E-13
      4.36133657932282E-10
      8.00000000000000E-01   8.00000000000000E-01   0.00000000000000E+00  -2.91088475632531E-12   6.22750245388955E-07
     -4.24810675873747E-10   6.22322523828325E-07   2.32867515366543E-13   0.00000000000000E+00   0.00000000000000E+00
      0.00000000000000E+00  -1.27748650702444E-11  -1.97181073354874E-16   1.04740268092199E-07   1.04727493029948E-07
     -7.39640207979962E-14  -4.00000000000000E+01  -4.00000000000000E+01   0.00000000000000E+00  -3.89604129104223E-07
     -5.94699400757832E-15  -3.37445881807056E-07  -7.27050016858273E-07  -1.58903494568546E-13
      5.28501900434494E-10
      8.00000000000000E-01   8.00000000000000E-01   0.00000000000000E+00  -2.17901898365523E-12   6.16527857635857E-07
     -2.25671774109874E-10   6.16300006842764E-07   2.32893662398367E-13   0.00000000000000E+00   0.00000000000000E+00
      0.00000000000000E+00  -1.38374147775193E-11  -1.97181124577694E-16   8.12735500499890E-08   8.12597124380303E-08
     -7.39554341120737E-14  -4.00000000000000E+01  -4.00000000000000E+01   0.00000000000000E+00  -3.62578101798976E-07
     -5.94783724647597E-15  -3.34981611533984E-07  -6.97559719280797E-07  -1.58938228286293E-13
      5.97778082311153E-10
      8.00000000000000E-01   8.00000000000000E-01   0.00000000000000E+00  -1.52297097597043E-12   6.13364087169739E-07
     -1.45165249364899E-10   6.13217398949398E-07   2.32913128379083E-13   0.00000000000000E+00   0.00000000000000E+00
      0.00000000000000E+00  -1.46851712939079E-11  -1.97181167347239E-16   6.24035574978819E-08   6.23888721294069E-08
     -7.39504607664445E-14  -4.00000000000000E+01  -4.00000000000000E+01   0.00000000000000E+00  -3.43019206616959E-07
     -5.94843051676311E-15  -3.32587058513415E-07  -6.75606271078805E-07  -1.58962667612638E-13
      7.01692355126143E-10
      8.00000000000000E-01   8.00000000000000E-01   0.00000000000000E+00  -6.50379718405709E-13   6.10859640045615E-07
     -7.89657786551398E-11   6.10780023887242E-07   2.32942359027515E-13   0.00000000000000E+00   0.00000000000000E+00
      0.00000000000000E+00  -1.57470443315604E-11  -1.97181237921514E-16   3.21980450514518E-08   3.21822978099390E-08
     -7.39455415520731E-14  -4.00000000000000E+01  -4.00000000000000E+01   0.00000000000000E+00  -3.14300030923199E-07
     -5.94925940840739E-15  -3.28662284824721E-07  -6.42962321697180E-07  -1.58996817475442E-13
      7.79628059737384E-10
      8.00000000000000E-01   8.00000000000000E-01   0.00000000000000E+00  -1.25278629002883E-13   6.10454926899521E-07
     -5.33517301049318E-11   6.10401449890787E-07   2.32964444378488E-13   0.00000000000000E+00   0.00000000000000E+00
      0.00000000000000E+00  -1.63507293753133E-11  -1.97181295277225E-16   8.31730856657336E-09   8.30095764001676E-09
     -7.39439587632244E-14  -4.00000000000000E+01  -4.00000000000000E+01   0.00000000000000E+00  -2.93095439232819E-07
     -5.94983380600600E-15  -3.25606962348150E-07  -6.18702407530803E-07  -1.59020485615263E-13
      8.96531616654247E-10
      8.00000000000000E-01   8.00000000000000E-01   0.00000000000000E+00   4.31850879389470E-13   6.11546762892436E-07
     -3.26957833162057E-11   6.11514498960000E-07   2.32998050463834E-13   0.00000000000000E+00   0.00000000000000E+00
      0.00000000000000E+00  -1.69399126820995E-11  -1.97181387081615E-16  -2.88422376008790E-08  -2.88591777107425E-08
     -7.39451398043496E-14  -4.00000000000000E+01  -4.00000000000000E+01   0.00000000000000E+00  -2.61671389858945E-07
     -5.95062060989427E-15  -3.20983925439691E-07  -5.82655321249257E-07  -1.59052910659485E-13
      9.84209284341894E-10
      8.00000000000000E-01   8.00000000000000E-01   0.00000000000000E+00   6.64805119121374E-13   6.13264249332835E-07
     -2.46782133360292E-11   6.13240235924618E-07   2.33023727749922E-13   0.00000000000000E+00   0.00000000000000E+00
      0.00000000000000E+00  -1.71329660973826E-11  -1.97181459670705E-16  -5.73428577293691E-08  -5.73599908926480E-08
     -7.39488969635859E-14  -4.00000000000000E+01  -4.00000000000000E+01   0.00000000000000E+00  -2.38362348356207E-07
     -5.95115243487385E-15  -3.17517890724612E-07  -5.55880245031971E-07  -1.59074830786336E-13
      1.11572578587336E-09
      8.00000000000000E-01   8.00000000000000E-01   0.00000000000000E+00   6.69879568572507E-13   6.16286096722746E-07
     -1.79183022478045E-11   6.16268848300067E-07   2.33063106709242E-13   0.00000000000000E+00   0.00000000000000E+00
      0.00000000000000E+00  -1.69577562219106E-11  -1.97181573051700E-16  -1.00132600994458E-07  -1.00149558947861E-07
     -7.39592044157894E-14  -4.00000000000000E+01  -4.00000000000000E+01   0.00000000000000E+00  -2.03771709002651E-07
     -5.95185767851007E-15  -3.12347574397698E-07  -5.16119289352207E-07  -1.59103902293453E-13
      1.21436316202197E-09
      8.00000000000000E-01   8.00000000000000E-01   0.00000000000000E+00   3.33408612223349E-13   6.18105116811830E-07
     -1.50282964243409E-11   6.18090421924018E-07   2.33093309555884E-13   0.00000000000000E+00   0.00000000000000E+00
      0.00000000000000E+00  -1.63617094420747E-11  -1.97181660698657E-16  -1.31463404860518E-07  -1.31479766767141E-07
     -7.39705741918752E-14  -4.00000000000000E+01  -4.00000000000000E+01   0.00000000000000E+00  -1.78113850118576E-07
     -5.95231450049940E-15  -3.08496799085986E-07  -4.86610655156876E-07  -1.59122735364009E-13
      1.36231922624487E-09
      8.00000000000000E-01   8.00000000000000E-01   0.00000000000000E+00  -9.44753535611387E-13   6.17826947873796E-07
     -1.22467570926501E-11   6.17813756363168E-07   2.33139431538325E-13   0.00000000000000E+00   0.00000000000000E+00
      0.00000000000000E+00  -1.44088935665731E-11  -1.97181793525194E-16  -1.74936645288241E-07  -1.74951054378989E-07
     -7.39931593886786E-14  -4.00000000000000E+01  -4.00000000000000E+01   0.00000000000000E+00  -1.40095671724611E-07
     -5.95288537713907E-15  -3.02767024306682E-07  -4.42862701984178E-07  -1.59146272149646E-13
      1.47328627441205E-09
      8.00000000000000E-01   8.00000000000000E-01   0.00000000000000E+00  -2.66920625604903E-12   6.13230730442877E-07
     -1.08339259898210E-11   6.13217227310631E-07   2.33174279753161E-13   0.00000000000000E+00   0.00000000000000E+00
      0.00000000000000E+00  -1.18736772941129E-11  -1.97181890277660E-16  -2.02704992681842E-07  -2.02716866556318E-07
     -7.40140226674383E-14  -4.00000000000000E+01  -4.00000000000000E+01   0.00000000000000E+00  -1.11994098748352E-07
     -5.95322456870641E-15  -2.98506256052737E-07  -4.10500360754313E-07  -1.59160257085722E-13
      1.63973684666282E-09
      8.00000000000000E-01   8.00000000000000E-01   0.00000000000000E+00  -6.60172799109622E-12   5.94243167161341E-07
     -9.25063305981995E-12   5.94227314800290E-07   2.33225519375281E-13   0.00000000000000E+00   0.00000000000000E+00
      0.00000000000000E+00  -6.11252876168722E-12  -1.97182011323120E-16  -2.31294248701890E-07  -2.31300361427834E-07
     -7.40500627993681E-14  -4.00000000000000E+01  -4.00000000000000E+01   0.00000000000000E+00  -7.07516377466665E-08
     -5.95359324503834E-15  -2.92175309672195E-07  -3.62926953372455E-07  -1.59175456575913E-13
      1.76457477585089E-09
      8.00000000000000E-01   8.00000000000000E-01   0.00000000000000E+00  -1.03805958688607E-11   5.67368690283006E-07
     -8.32581470906528E-12   5.67349983872428E-07   2.33261718920680E-13   0.00000000000000E+00   0.00000000000000E+00
      0.00000000000000E+00  -4.83981999708802E-13  -1.97182059223191E-16  -2.39002398735628E-07  -2.39002882914810E-07
     -7.40793012691568E-14  -4.00000000000000E+01  -4.00000000000000E+01   0.00000000000000E+00  -4.08713255528401E-08
     -5.95376214297626E-15  -2.87475769451014E-07  -3.28347100957617E-07  -1.59182417651523E-13
      1.85820322274195E-09
      8.00000000000000E-01   8.00000000000000E-01   0.00000000000000E+00  -1.33822389502858E-11   5.38941658474865E-07
     -7.72860723946643E-12   5.38920547628676E-07   2.33286629924570E-13   0.00000000000000E+00   0.00000000000000E+00
      0.00000000000000E+00   4.10767934384828E-12  -1.97182051739726E-16  -2.35604574144812E-07  -2.35600466662650E-07
     -7.41013971978517E-14  -4.00000000000000E+01  -4.00000000000000E+01   0.00000000000000E+00  -1.93402301488378E-08
     -5.95383049911900E-15  -2.83979844863357E-07  -3.03320080966026E-07  -1.59185232726718E-13
      1.99864589307854E-09
      8.00000000000000E-01   8.00000000000000E-01   0.00000000000000E+00  -1.74357297897467E-11   4.83339912927026E-07
     -6.94705555477792E-12   4.83315530141682E-07   2.33318734065338E-13   0.00000000000000E+00   0.00000000000000E+00
      0.00000000000000E+00   1.06717977525175E-11  -1.97181933086225E-16  -2.15478143667885E-07  -2.15467472067315E-07
     -7.41329282125511E-14  -4.00000000000000E+01  -4.00000000000000E+01   0.00000000000000E+00   1.09370013414399E-08
     -5.95384457189125E-15  -2.78785053461962E-07  -2.67848058074367E-07  -1.59185805852788E-13
      2.10397789583097E-09
      8.00000000000000E-01   8.00000000000000E-01   0.00000000000000E+00  -1.96481589862048E-11   4.33103997748865E-07
     -6.43383121780483E-12   4.33077915758661E-07   2.33337667375271E-13   0.00000000000000E+00   0.00000000000000E+00
      0.00000000000000E+00   1.46908044891466E-11  -1.97181734421432E-16  -1.89785947747492E-07  -1.89771257140185E-07
     -7.41541119854380E-14  -4.00000000000000E+01  -4.00000000000000E+01   0.00000000000000E+00   3.16233522267407E-08
     -5.95379015835855E-15  -2.74930004891428E-07  -2.43306658618478E-07  -1.59183555389833E-13
      2.26197589995963E-09
      8.00000000000000E-01   8.00000000000000E-01   0.00000000000000E+00  -2.09499802282887E-11   3.50264095669396E-07
     -5.75645746909472E-12   3.50237389231698E-07   2.33356295455382E-13   0.00000000000000E+00   0.00000000000000E+00
      0.00000000000000E+00   1.82442289150831E-11  -1.97181215543119E-16  -1.39653292183315E-07  -1.39635048151581E-07
     -7.41799042188437E-14  -4.00000000000000E+01  -4.00000000000000E+01   0.00000000000000E+00   5.86175721049199E-08
     -5.95361670567844E-15  -2.69219907231420E-07  -2.10602341080117E-07  -1.59176391236539E-13
      2.38047440305613E-09
      8.00000000000000E-01   8.00000000000000E-01   0.00000000000000E+00  -2.02451390714183E-11   2.87347034625089E-07
     -5.30958727810713E-12   2.87321479898739E-07   2.33362183360552E-13   0.00000000000000E+00   0.00000000000000E+00
      0.00000000000000E+00   1.87245695193959E-11  -1.97180634950534E-16  -9.77113103146253E-08  -9.76925859422866E-08
     -7.41937465178077E-14  -4.00000000000000E+01  -4.00000000000000E+01   0.00000000000000E+00   7.53704678483614E-08
     -5.95342404007422E-15  -2.64999355851390E-07  -1.89628893956453E-07  -1.59168436842745E-13
      2.55822215770087E-09
      8.00000000000000E-01   8.00000000000000E-01   0.00000000000000E+00  -1.70760796736483E-11   2.01659785500260E-07
     -4.71838571524719E-12   2.01637991034871E-07   2.33358646757400E-13   0.00000000000000E+00   0.00000000000000E+00
      0.00000000000000E+00   1.64791888691125E-11  -1.97179458439571E-16  -3.77267889623046E-08  -3.77103099706149E-08
     -7.42053878531807E-14  -4.00000000000000E+01  -4.00000000000000E+01   0.00000000000000E+00   9.48518907492783E-08
     -5.95305632745414E-15  -2.58779565860478E-07  -1.63927681064256E-07  -1.59153258904220E-13
      2.69153297368442E-09
      8.00000000000000E-01   8.00000000000000E-01   0.00000000000000E+00  -1.37707526180429E-11   1.48682110450168E-07
     -4.32719282118226E-12   1.48664012504729E-07   2.33347500653344E-13   0.00000000000000E+00   0.00000000000000E+00
      0.00000000000000E+00   1.33151068724265E-11  -1.97178367384638E-16   1.10549407914393E-10   1.23864317608452E-10
     -7.42076087091831E-14  -4.00000000000000E+01  -4.00000000000000E+01   0.00000000000000E+00   1.05420813816508E-07
     -5.95273243589492E-15  -2.54208684686113E-07  -1.48787876822338E-07  -1.59139891944161E-13
      2.89149919765975E-09
      8.00000000000000E-01   8.00000000000000E-01   0.00000000000000E+00  -8.85196583454107E-12   9.05375518428332E-08
     -3.80721538595257E-12   9.05248926616127E-08   2.33320700705535E-13   0.00000000000000E+00   0.00000000000000E+00
      0.00000000000000E+00   8.11514641889290E-12  -1.97176520990465E-16   4.07364911408820E-08   4.07446060901244E-08
     -7.42030142275256E-14  -4.00000000000000E+01  -4.00000000000000E+01   0.00000000000000E+00   1.16239132399023E-07
     -5.95219430476853E-15  -2.47508625198566E-07  -1.31269498751737E-07  -1.59117686478009E-13
      3.04147386564125E-09
      8.00000000000000E-01   8.00000000000000E-01   0.00000000000000E+00  -5.85091516117321E-12   6.21811586709253E-08
     -3.46124165803754E-12   6.21718465141060E-08   2.33295086913296E-13   0.00000000000000E+00   0.00000000000000E+00
      0.00000000000000E+00   4.75729722085748E-12  -1.97175077493241E-16   5.89368857269673E-08   5.89416428270130E-08
     -7.41952383776818E-14  -4.00000000000000E+01  -4.00000000000000E+01   0.00000000000000E+00   1.21484017570352E-07
     -5.95176196026274E-15  -2.42597500959710E-07  -1.21113489341119E-07  -1.59099848535614E-13
      3.26643586761350E-09
      8.00000000000000E-01   8.00000000000000E-01   0.00000000000000E+00  -2.87054756100327E-12   3.71635989560281E-08
     -2.99983261676317E-12   3.71577285758504E-08   2.33252006279585E-13   0.00000000000000E+00   0.00000000000000E+00
      0.00000000000000E+00   1.30761097481345E-12  -1.97173035029746E-16   7.14888304312292E-08   7.14901378450310E-08
     -7.41800955186264E-14  -4.00000000000000E+01  -4.00000000000000E+01   0.00000000000000E+00   1.26696536445116E-07
     -5.95108473536544E-15  -2.35344396914912E-07  -1.08647866420881E-07  -1.59071910760958E-13
      3.43515736909269E-09
      8.00000000000000E-01   8.00000000000000E-01   0.00000000000000E+00  -1.63975446581066E-12   2.73549486461770E-08
     -2.69316981467891E-12   2.73506157218965E-08   2.33217929515556E-13   0.00000000000000E+00   0.00000000000000E+00
      0.00000000000000E+00  -1.50665539137070E-13  -1.97171705464335E-16   7.31918860903225E-08   7.31917352276117E-08
     -7.41676248349435E-14  -4.00000000000000E+01  -4.00000000000000E+01   0.00000000000000E+00   1.29356417202018E-07
     -5.95056092768723E-15  -2.29898762200964E-07  -1.00542350949508E-07  -1.59050304680612E-13
      3.56169849520208E-09
      8.00000000000000E-01   8.00000000000000E-01   0.00000000000000E+00  -1.10651413992370E-12   2.28248073147200E-08
     -2.48281119944126E-12   2.28212179893806E-08   2.33192102318247E-13   0.00000000000000E+00   0.00000000000000E+00
      0.00000000000000E+00  -7.94583399238906E-13  -1.97170857349169E-16   7.19960627880505E-08   7.19952680074804E-08
     -7.41582668106879E-14  -4.00000000000000E+01  -4.00000000000000E+01   0.00000000000000E+00   1.30913012199497E-07
     -5.95016162155720E-15  -2.25729492246196E-07  -9.48164859968608E-08  -1.59033835507559E-13
      3.65660433978412E-09
      8.00000000000000E-01   8.00000000000000E-01   0.00000000000000E+00  -8.46143087556985E-13   2.03929942859205E-08
     -2.33527897570656E-12   2.03898128638573E-08   2.33172762765482E-13   0.00000000000000E+00   0.00000000000000E+00
      0.00000000000000E+00  -1.10422719550726E-12  -1.97170308963508E-16   7.02541090278672E-08   7.02530046035014E-08
     -7.41513976210162E-14  -4.00000000000000E+01  -4.00000000000000E+01   0.00000000000000E+00   1.31865417540710E-07
     -5.94985925040670E-15  -2.22508229058209E-07  -9.06428174673586E-08  -1.59021365144467E-13
      3.72778372322066E-09
      8.00000000000000E-01   8.00000000000000E-01   0.00000000000000E+00  -7.06293492191545E-13   1.89360297714525E-08
     -2.23009070706827E-12   1.89330933872532E-08   2.33158327639081E-13   0.00000000000000E+00   0.00000000000000E+00
      0.00000000000000E+00  -1.26922975631025E-12  -1.97169945797982E-16   6.86305658842707E-08   6.86292964573445E-08
     -7.41463698840571E-14  -4.00000000000000E+01  -4.00000000000000E+01   0.00000000000000E+00   1.32453883654031E-07
     -5.94963113758375E-15  -2.20016267548997E-07  -8.75623898445972E-08  -1.59011957755025E-13
      3.78116826079805E-09
      8.00000000000000E-01   8.00000000000000E-01   0.00000000000000E+00  -6.24532568231918E-13   1.79965747172369E-08
     -2.15415443827701E-12   1.79937960302304E-08   2.33147557423522E-13   0.00000000000000E+00   0.00000000000000E+00
      0.00000000000000E+00  -1.36524412850492E-12  -1.97169699343494E-16   6.72832607294462E-08   6.72818952881480E-08
     -7.41426805452856E-14  -4.00000000000000E+01  -4.00000000000000E+01   0.00000000000000E+00   1.32818348798796E-07
     -5.94945943313588E-15  -2.18094034167715E-07  -8.52756913183784E-08  -1.59004876878237E-13
      3.86124506716415E-09
      8.00000000000000E-01   8.00000000000000E-01   0.00000000000000E+00  -5.30104433552438E-13   1.67732339788892E-08
     -2.04482407093579E-12   1.67706590503847E-08   2.33131514456627E-13   0.00000000000000E+00   0.00000000000000E+00
      0.00000000000000E+00  -1.46679071160208E-12  -1.97169368923566E-16   6.51107480036613E-08   6.51092810157803E-08
     -7.41372902447993E-14  -4.00000000000000E+01  -4.00000000000000E+01   0.00000000000000E+00   1.33227980083424E-07
     -5.94920110769947E-15  -2.15107914200388E-07  -8.18799400661650E-08  -1.58994224211827E-13
      3.98136027671330E-09
      8.00000000000000E-01   8.00000000000000E-01   0.00000000000000E+00  -4.33090519908901E-13   1.52420807976102E-08
     -1.89066776135567E-12   1.52397570393289E-08   2.33107754479750E-13   0.00000000000000E+00   0.00000000000000E+00
      0.00000000000000E+00  -1.56558222866086E-12  -1.97168954295330E-16   6.16220406223305E-08   6.16204748429329E-08
     -7.41295511174117E-14  -4.00000000000000E+01  -4.00000000000000E+01   0.00000000000000E+00   1.33490944733544E-07
     -5.94881258636087E-15  -2.10351170666994E-07  -7.68602318822617E-08  -1.58978203362338E-13
      4.16153309103702E-09
      8.00000000000000E-01   8.00000000000000E-01   0.00000000000000E+00  -3.47612207047067E-13   1.33801181901073E-08
     -1.68010192546361E-12   1.33780904759748E-08   2.33072958234015E-13   0.00000000000000E+00   0.00000000000000E+00
      0.00000000000000E+00  -1.62056790896556E-12  -1.97168488970411E-16   5.61281392517656E-08   5.61265184866882E-08
     -7.41187663192834E-14  -4.00000000000000E+01  -4.00000000000000E+01   0.00000000000000E+00   1.32939756085118E-07
     -5.94823024675644E-15  -2.02444359099551E-07  -6.95046089626629E-08  -1.58954191914731E-13
      4.43179231252261E-09
      8.00000000000000E-01   8.00000000000000E-01   0.00000000000000E+00  -2.81069844159952E-13   1.11284921738235E-08
     -1.40606125805043E-12   1.11268050427213E-08   2.33023174994202E-13   0.00000000000000E+00   0.00000000000000E+00