DF-ISE text

Info {
  version   = 1.0
  type      = xyplot
  datasets  = [
    "time"
    "Ntop OuterVoltage" "Ntop InnerVoltage" "Ntop QuasiFermiPotential" "Ntop DisplacementCurrent" "Ntop eCurrent"
    "Ntop hCurrent" "Ntop TotalCurrent" "Ntop Charge" "Ptop OuterVoltage" "Ptop InnerVoltage"
    "Ptop QuasiFermiPotential" "Ptop DisplacementCurrent" "Ptop eCurrent" "Ptop hCurrent" "Ptop TotalCurrent"
    "Ptop Charge" "Pbot OuterVoltage" "Pbot InnerVoltage" "Pbot QuasiFermiPotential" "Pbot DisplacementCurrent"
    "Pbot eCurrent" "Pbot hCurrent" "Pbot TotalCurrent" "Pbot Charge" ]
  functions = [
    Time
    OuterVoltage InnerVoltage QuasiFermiPotential DisplacementCurrent eCurrent
    hCurrent TotalCurrent Charge OuterVoltage InnerVoltage
    QuasiFermiPotential DisplacementCurrent eCurrent hCurrent TotalCurrent
    Charge OuterVoltage InnerVoltage QuasiFermiPotential DisplacementCurrent
    eCurrent hCurrent TotalCurrent Charge ]
}

Data {
      5.00000000000000E-13
      8.00000000000000E-01   8.00000000000000E-01   0.00000000000000E+00   1.00341844194509E-14   7.45689975043125E-12
     -6.86996789901894E-12   5.96966035831768E-13   2.34224766837354E-13   0.00000000000000E+00   0.00000000000000E+00
      0.00000000000000E+00  -1.21443507604033E-13  -1.97157898428231E-16   1.75443966751369E-09   1.75431802684818E-09
     -6.21801123149368E-14  -4.50000000000000E+01  -4.50000000000000E+01   0.00000000000000E+00  -4.10006455941563E-13
      1.37001719397915E-11  -1.76820515836787E-09  -1.75491499288402E-09  -1.72044654522417E-13
      1.25000000000000E-12
      8.00000000000000E-01   8.00000000000000E-01   0.00000000000000E+00   1.05545882316206E-13   3.36188475405409E-11
     -3.17001464611725E-11   2.02424696168465E-12   2.34224766837734E-13   0.00000000000000E+00   0.00000000000000E+00
      0.00000000000000E+00  -3.52353149336329E-14  -1.97157898425852E-16   1.75554093275015E-09   1.75550550027732E-09
     -6.21801123143348E-14  -4.50000000000000E+01  -4.50000000000000E+01   0.00000000000000E+00  -2.34086174861795E-12
      6.32254830981547E-11  -1.81841436858855E-09  -1.75752974723901E-09  -1.72044654523399E-13
      2.37500000000000E-12
      8.00000000000000E-01   8.00000000000000E-01   0.00000000000000E+00   7.98363300959317E-13   2.80290133668857E-10
     -2.62290188645912E-10   1.87983083239035E-11   2.34224766843275E-13   0.00000000000000E+00   0.00000000000000E+00
      0.00000000000000E+00   1.05890944890137E-12  -1.97157898398913E-16   1.76879756573051E-09   1.76985627802151E-09
     -6.21801123053072E-14  -4.50000000000000E+01  -4.50000000000000E+01   0.00000000000000E+00  -2.53721064660788E-11
      5.23011245748344E-10  -2.28629372562768E-09  -1.78865458634542E-09  -1.72044654537968E-13
      4.06250000000000E-12
      8.00000000000000E-01   8.00000000000000E-01   0.00000000000000E+00   1.19676828160875E-11   4.35379999306274E-09
     -3.97900297744904E-09   3.86764698429783E-10   2.34224767006052E-13   0.00000000000000E+00   0.00000000000000E+00
      0.00000000000000E+00   1.53119553205231E-11  -1.97157897780078E-16   2.07561791395681E-09   2.09092967211944E-09
     -6.21801120320895E-14  -4.50000000000000E+01  -4.50000000000000E+01   0.00000000000000E+00  -5.35291173291441E-10
      7.93006574579570E-09  -9.87246894305347E-09  -2.47769437054922E-09  -1.72044654973964E-13
      6.59375000000000E-12
      8.00000000000000E-01   8.00000000000000E-01   0.00000000000000E+00   2.38373875562120E-10   9.06609219779721E-08
     -7.96294094758339E-08   1.12698863777004E-08   2.34224773942493E-13   0.00000000000000E+00   0.00000000000000E+00
      0.00000000000000E+00   3.08909817744904E-10  -1.97157878887121E-16   1.14358012148482E-08   1.17447108354352E-08
     -6.21801000736502E-14  -4.50000000000000E+01  -4.50000000000000E+01   0.00000000000000E+00  -1.57329618464726E-08
      1.58559659840646E-07  -1.65841295207309E-07  -2.30145972131355E-08  -1.72044673868842E-13
      1.03906250000000E-11
      8.00000000000000E-01   8.00000000000000E-01   0.00000000000000E+00   1.99198470625840E-09   8.12863019459954E-07
     -6.62774127875407E-07   1.52080876290805E-07   2.34224921010102E-13   0.00000000000000E+00   0.00000000000000E+00
      0.00000000000000E+00   2.55821236744830E-09  -1.97157629812328E-16   1.34635891559086E-07   1.37194103729377E-07
     -6.21798429193833E-14  -4.50000000000000E+01  -4.50000000000000E+01   0.00000000000000E+00  -2.12600814417737E-07
      1.31746977731069E-06  -1.39414394291313E-06  -2.89274980020183E-07  -1.72045078090719E-13
      1.60859375000000E-11
      8.00000000000000E-01   8.00000000000000E-01   0.00000000000000E+00   1.16290368434977E-09   7.27052615677044E-07
     -3.54664802406535E-07   3.73550716954859E-07   2.34225693183716E-13   0.00000000000000E+00   0.00000000000000E+00
      0.00000000000000E+00   1.20066407375800E-09  -1.97157252355919E-16   3.20201938441058E-07   3.21402602317658E-07
     -6.21785209420576E-14  -4.50000000000000E+01  -4.50000000000000E+01   0.00000000000000E+00  -5.10099939258044E-07
      6.94216007688145E-07  -8.79069387702619E-07  -6.94953319272518E-07  -1.72047172241660E-13
      2.46289062500000E-11
      8.00000000000000E-01   8.00000000000000E-01   0.00000000000000E+00   1.54937205313745E-10   4.97468963684480E-07
     -8.85898605835069E-09   4.88764914831443E-07   2.34227621314534E-13   0.00000000000000E+00   0.00000000000000E+00
      0.00000000000000E+00  -1.90380548605115E-10  -1.97157142441138E-16   3.72209235023871E-07   3.72018854278109E-07
     -6.21755163009511E-14  -4.50000000000000E+01  -4.50000000000000E+01   0.00000000000000E+00  -6.23649913588512E-07
      1.28636943698134E-09  -2.38420224958020E-07  -8.60783769109550E-07  -1.72052105013583E-13
      3.74433593750000E-11
      8.00000000000000E-01   8.00000000000000E-01   0.00000000000000E+00   1.12674426007909E-10   5.36096214505350E-07
     -7.46860358336730E-09   5.28740285347991E-07   2.34231038512968E-13   0.00000000000000E+00   0.00000000000000E+00
      0.00000000000000E+00  -1.43671372555474E-10  -1.97157216317078E-16   3.32504992509013E-07   3.32361320939301E-07
     -6.21710353501010E-14  -4.50000000000000E+01  -4.50000000000000E+01   0.00000000000000E+00  -6.08964715866975E-07
     -6.25620279737765E-15  -2.52136884164114E-07  -8.61101606287292E-07  -1.72060003162868E-13
      5.66650390625000E-11
      8.00000000000000E-01   8.00000000000000E-01   0.00000000000000E+00   7.70011521216093E-11   5.76755532022643E-07
     -6.46756113189230E-09   5.70364972042873E-07   2.34236632154008E-13   0.00000000000000E+00   0.00000000000000E+00
      0.00000000000000E+00  -1.03497864183035E-10  -1.97157298548326E-16   2.87716133511042E-07   2.87612635449701E-07
     -6.21651328135493E-14  -4.50000000000000E+01  -4.50000000000000E+01   0.00000000000000E+00  -5.87393341929357E-07
     -6.25655754558488E-15  -2.70584259306658E-07  -8.57977607492572E-07  -1.72071499340459E-13
      8.54975585937500E-11
      8.00000000000000E-01   8.00000000000000E-01   0.00000000000000E+00   4.60706895644774E-11   6.14851553227956E-07
     -5.21032323357515E-09   6.09687300683946E-07   2.34245626936100E-13   0.00000000000000E+00   0.00000000000000E+00
      0.00000000000000E+00  -6.81309285857610E-11  -1.97157381837834E-16   2.41267657465499E-07   2.41199526339755E-07
     -6.21576042759929E-14  -4.50000000000000E+01  -4.50000000000000E+01   0.00000000000000E+00  -5.59177566920386E-07
     -6.25693186641377E-15  -2.91709253846387E-07  -8.50886827023705E-07  -1.72088022660108E-13
      1.28746337890625E-10
      8.00000000000000E-01   8.00000000000000E-01   0.00000000000000E+00   2.12683129237988E-11   6.44113270767134E-07
     -3.76571586453849E-09   6.40368823215519E-07   2.34259720912629E-13   0.00000000000000E+00   0.00000000000000E+00
      0.00000000000000E+00  -3.95450388290637E-11  -1.97157455929206E-16   1.97731483797148E-07   1.97691938561161E-07
     -6.21482696992626E-14  -4.50000000000000E+01  -4.50000000000000E+01   0.00000000000000E+00  -5.24976511425950E-07
     -6.25746351514765E-15  -3.13084244093267E-07  -8.38060761776680E-07  -1.72111451213366E-13
      1.61182922363281E-10
      8.00000000000000E-01   8.00000000000000E-01   0.00000000000000E+00   1.10814355552732E-11   6.53578383271226E-07
     -2.95499817765231E-09   6.50634466529129E-07   2.34270429172470E-13   0.00000000000000E+00   0.00000000000000E+00
      0.00000000000000E+00  -2.79722305137979E-11  -1.97157487368636E-16   1.77072371636203E-07   1.77044399208531E-07
     -6.21422900085833E-14  -4.50000000000000E+01  -4.50000000000000E+01   0.00000000000000E+00  -5.04269163591309E-07
     -6.25784267173290E-15  -3.23409695888509E-07  -8.27678865737660E-07  -1.72128139163887E-13
      2.09837799072266E-10
      8.00000000000000E-01   8.00000000000000E-01   0.00000000000000E+00   2.49124906001726E-12   6.57772507555353E-07
     -2.05499055584273E-09   6.55720008248571E-07   2.34286377558532E-13   0.00000000000000E+00   0.00000000000000E+00
      0.00000000000000E+00  -1.85489175247496E-11  -1.97157513351577E-16   1.55809157033153E-07   1.55790607918471E-07
     -6.21343421079221E-14  -4.50000000000000E+01  -4.50000000000000E+01   0.00000000000000E+00  -4.78437621975803E-07
     -6.25838598000527E-15  -3.33072987932852E-07  -8.11510616167041E-07  -1.72152035450611E-13
      2.46328956604004E-10
      8.00000000000000E-01   8.00000000000000E-01   0.00000000000000E+00  -7.88731203255863E-13   6.56530400457171E-07
     -1.56867427529445E-09   6.54960937450673E-07   2.34298160901988E-13   0.00000000000000E+00   0.00000000000000E+00
      0.00000000000000E+00  -1.51643607427298E-11  -1.97157522667786E-16   1.44146493906535E-07   1.44131329348635E-07
     -6.21289709439041E-14  -4.50000000000000E+01  -4.50000000000000E+01   0.00000000000000E+00  -4.61920286081733E-07
     -6.25877618974177E-15  -3.37171974458797E-07  -7.99092266799307E-07  -1.72169189958084E-13
      3.01065692901611E-10
      8.00000000000000E-01   8.00000000000000E-01   0.00000000000000E+00  -3.12279328658857E-12   6.51730649439615E-07
     -1.04826799317309E-09   6.50679258653155E-07   2.34315495209712E-13   0.00000000000000E+00   0.00000000000000E+00
      0.00000000000000E+00  -1.29873151361219E-11  -1.97157528738457E-16   1.29552992774444E-07   1.29540005262151E-07
     -6.21216287740554E-14  -4.50000000000000E+01  -4.50000000000000E+01   0.00000000000000E+00  -4.39946225727557E-07
     -6.25933764282787E-15  -3.40273031928409E-07  -7.80219263915304E-07  -1.72193866435657E-13
      3.42118245124817E-10
      8.00000000000000E-01   8.00000000000000E-01   0.00000000000000E+00  -3.69532872829914E-12   6.47233324115991E-07
     -7.78328922723848E-10   6.46451299864539E-07   2.34328238994647E-13   0.00000000000000E+00   0.00000000000000E+00
      0.00000000000000E+00  -1.26372495548653E-11  -1.97157530451587E-16   1.19528675550563E-07   1.19516038103851E-07
     -6.21166212941639E-14  -4.50000000000000E+01  -4.50000000000000E+01   0.00000000000000E+00  -4.24939729767434E-07
     -6.25974159128191E-15  -3.41027601941217E-07  -7.65967337968393E-07  -1.72211617700484E-13
      4.03697073459625E-10
      8.00000000000000E-01   8.00000000000000E-01   0.00000000000000E+00  -3.67583844064193E-12   6.40601073258258E-07
     -5.00542706159056E-10   6.40096854713658E-07   2.34347006870949E-13   0.00000000000000E+00   0.00000000000000E+00
      0.00000000000000E+00  -1.30160355349269E-11  -1.97157532993362E-16   1.04472969822697E-07   1.04459953590005E-07
     -6.21098753867805E-14  -4.50000000000000E+01  -4.50000000000000E+01   0.00000000000000E+00  -4.03824670814484E-07
     -6.26032221417663E-15  -3.40732131228857E-07  -7.44556808303663E-07  -1.72237131484169E-13
      4.49881194710732E-10
      8.00000000000000E-01   8.00000000000000E-01   0.00000000000000E+00  -3.30677329265469E-12   6.36179357939595E-07
     -3.62594515832435E-10   6.35813456650469E-07   2.34360862757494E-13   0.00000000000000E+00   0.00000000000000E+00
      0.00000000000000E+00  -1.36393357899015E-11  -1.97157536701163E-16   9.27201767911098E-08   9.27065372581623E-08
     -6.21054309457119E-14  -4.50000000000000E+01  -4.50000000000000E+01   0.00000000000000E+00  -3.88707816385426E-07
     -6.26073867963446E-15  -3.39812171262469E-07  -7.28519993908633E-07  -1.72255431811781E-13
      5.19157376587391E-10
      8.00000000000000E-01   8.00000000000000E-01   0.00000000000000E+00  -2.56601799193707E-12   6.30820138003916E-07
     -2.26264654717672E-10   6.30591307331207E-07   2.34381407424149E-13   0.00000000000000E+00   0.00000000000000E+00
      0.00000000000000E+00  -1.47105060935997E-11  -1.97157547513488E-16   7.39743187946294E-08   7.39596080913783E-08
     -6.20998113548405E-14  -4.50000000000000E+01  -4.50000000000000E+01   0.00000000000000E+00  -3.66706470639643E-07
     -6.26133407835973E-15  -3.37844438521608E-07  -7.04550915422585E-07  -1.72281596069309E-13
      5.71114512994885E-10
      8.00000000000000E-01   8.00000000000000E-01   0.00000000000000E+00  -1.98014673964534E-12   6.27839422202100E-07
     -1.61509420344157E-10   6.27675932635016E-07   2.34396697480725E-13   0.00000000000000E+00   0.00000000000000E+00
      0.00000000000000E+00  -1.54905461118825E-11  -1.97157560627668E-16   5.89981731407459E-08   5.89826823974764E-08
     -6.20964683842156E-14  -4.50000000000000E+01  -4.50000000000000E+01   0.00000000000000E+00  -3.50558915478653E-07
     -6.26175806470943E-15  -3.36099693292081E-07  -6.86658615032493E-07  -1.72300229096509E-13
      6.49050217606127E-10
      8.00000000000000E-01   8.00000000000000E-01   0.00000000000000E+00  -1.17456015507030E-12   6.24906827695085E-07
     -9.99563024866163E-11   6.24805696832443E-07   2.34419571826057E-13   0.00000000000000E+00   0.00000000000000E+00
      0.00000000000000E+00  -1.65241424445493E-11  -1.97157589264123E-16   3.51804996869895E-08   3.51639753473874E-08
     -6.20929529366863E-14  -4.50000000000000E+01  -4.50000000000000E+01   0.00000000000000E+00  -3.26690141508773E-07
     -6.26235849659831E-15  -3.33279524408700E-07  -6.59969672179832E-07  -1.72326618889372E-13
      7.07501996064559E-10
      8.00000000000000E-01   8.00000000000000E-01   0.00000000000000E+00  -6.58913227027619E-13   6.23767642729475E-07
     -7.18830014116442E-11   6.23695100814836E-07   2.34436751572609E-13   0.00000000000000E+00   0.00000000000000E+00
      0.00000000000000E+00  -1.71595587639240E-11  -1.97157617906100E-16   1.63944364984267E-08   1.63772767425052E-08
     -6.20915546820983E-14  -4.50000000000000E+01  -4.50000000000000E+01   0.00000000000000E+00  -3.08991270852374E-07
     -6.26278114780065E-15  -3.31081100442185E-07  -6.40072377557340E-07  -1.72345196890511E-13
      7.95179663752206E-10
      8.00000000000000E-01   8.00000000000000E-01   0.00000000000000E+00  -5.23265109332874E-14   6.23399150570524E-07
     -4.59973050414487E-11   6.23353100938971E-07   2.34462682541434E-13   0.00000000000000E+00   0.00000000000000E+00
      0.00000000000000E+00  -1.78814064531888E-11  -1.97157671315170E-16  -1.29218442390042E-08  -1.29397258426150E-08
     -6.20915484386320E-14  -4.50000000000000E+01  -4.50000000000000E+01   0.00000000000000E+00  -2.82679520229921E-07
     -6.26337115724709E-15  -3.27733848603067E-07  -6.10413375096359E-07  -1.72371134102805E-13
      9.26696165283676E-10
      8.00000000000000E-01   8.00000000000000E-01   0.00000000000000E+00   4.63121624405994E-13   6.24864239774661E-07
     -2.65495950981766E-11   6.24838153301187E-07   2.34502164633792E-13   0.00000000000000E+00   0.00000000000000E+00
      0.00000000000000E+00  -1.84212970261991E-11  -1.97157762274172E-16  -5.84952495179080E-08  -5.85136710120920E-08
     -6.20964234486795E-14  -4.50000000000000E+01  -4.50000000000000E+01   0.00000000000000E+00  -2.43637225248484E-07
     -6.26415826674935E-15  -3.22687250776454E-07  -5.66324482289096E-07  -1.72405741185112E-13
      1.02533354143228E-09
      8.00000000000000E-01   8.00000000000000E-01   0.00000000000000E+00   5.06357565997528E-13   6.26682631791037E-07
     -1.95163415423919E-11   6.26663621807061E-07   2.34532346763699E-13   0.00000000000000E+00   0.00000000000000E+00
      0.00000000000000E+00  -1.83585330392996E-11  -1.97157812464879E-16  -9.30872731786159E-08  -9.31056319088130E-08
     -6.21040046348327E-14  -4.50000000000000E+01  -4.50000000000000E+01   0.00000000000000E+00  -2.14645990738413E-07
     -6.26467223525574E-15  -3.18911992895162E-07  -5.33557989898247E-07  -1.72428342128867E-13
      1.17328960565518E-09
      8.00000000000000E-01   8.00000000000000E-01   0.00000000000000E+00  -1.73717998282493E-13   6.28319518642289E-07
     -1.37884627404737E-11   6.28305556461550E-07   2.34578531913267E-13   0.00000000000000E+00   0.00000000000000E+00
      0.00000000000000E+00  -1.72549598961031E-11  -1.97157701526733E-16  -1.43406876916440E-07  -1.43424132073494E-07
     -6.21216196973850E-14  -4.50000000000000E+01  -4.50000000000000E+01   0.00000000000000E+00  -1.71596684549783E-07
     -6.26532187515864E-15  -3.13284733572950E-07  -4.84881424388055E-07  -1.72456912215882E-13
      1.28425665382236E-09
      8.00000000000000E-01   8.00000000000000E-01   0.00000000000000E+00  -1.47019081093490E-12   6.26665349848866E-07
     -1.13719625460908E-11   6.26652507695509E-07   2.34613672952294E-13   0.00000000000000E+00   0.00000000000000E+00
      0.00000000000000E+00  -1.53283977430032E-11  -1.97157226055824E-16  -1.77863395988338E-07  -1.77878724583239E-07
     -6.21394917058163E-14  -4.50000000000000E+01  -4.50000000000000E+01   0.00000000000000E+00  -1.39679408205163E-07
     -6.26571451553057E-15  -3.09094368641396E-07  -4.48773783112273E-07  -1.72474181246479E-13
      1.36748193994775E-09
      8.00000000000000E-01   8.00000000000000E-01   0.00000000000000E+00  -3.03597473592182E-12   6.22318755193574E-07
     -1.00692050184854E-11   6.22305650013820E-07   2.34640056999740E-13   0.00000000000000E+00   0.00000000000000E+00
      0.00000000000000E+00  -1.30733475722416E-11  -1.97156392338728E-16  -2.00332443304011E-07  -2.00345516848740E-07
     -6.21552375122830E-14  -4.50000000000000E+01  -4.50000000000000E+01   0.00000000000000E+00  -1.15991051910529E-07
     -6.26595638886430E-15  -3.05969074988594E-07  -4.21960133165079E-07  -1.72484819487457E-13
      1.49231986913582E-09
      8.00000000000000E-01   8.00000000000000E-01   0.00000000000000E+00  -6.38182780219904E-12   6.07995917560656E-07
     -8.58118219007721E-12   6.07980954550664E-07   2.34678960655701E-13   0.00000000000000E+00   0.00000000000000E+00
      0.00000000000000E+00  -8.22754035426850E-12  -1.97153629356854E-16  -2.25643306543498E-07  -2.25651534281006E-07
     -6.21818483390854E-14  -4.50000000000000E+01  -4.50000000000000E+01   0.00000000000000E+00  -8.10195903749348E-08
     -6.26623589092771E-15  -3.01309823628485E-07  -3.82329420269655E-07  -1.72497112316616E-13
      1.58594831602688E-09
      8.00000000000000E-01   8.00000000000000E-01   0.00000000000000E+00  -9.59643502116775E-12   5.89276787861148E-07
     -7.70902809691818E-12   5.89259482398029E-07   2.34706937706595E-13   0.00000000000000E+00   0.00000000000000E+00
      0.00000000000000E+00  -3.51971805516660E-12  -1.97149606909610E-16  -2.35999886777486E-07  -2.36003406692691E-07
     -6.22034409338754E-14  -4.50000000000000E+01  -4.50000000000000E+01   0.00000000000000E+00  -5.54175393004620E-08
     -6.26638107479851E-15  -2.97838530138495E-07  -3.53256075705338E-07  -1.72503496772720E-13
      1.72639098636346E-09
      8.00000000000000E-01   8.00000000000000E-01   0.00000000000000E+00  -1.49370827752074E-11   5.45709467650053E-07
     -6.64611727620671E-12   5.45687884450001E-07   2.34745185451011E-13   0.00000000000000E+00   0.00000000000000E+00
      0.00000000000000E+00   4.54288439988620E-12  -1.97138134365509E-16  -2.34400638831253E-07  -2.34396096143991E-07
     -6.22365039177526E-14  -4.50000000000000E+01  -4.50000000000000E+01   0.00000000000000E+00  -1.86205606930450E-08
     -6.26649903703898E-15  -2.92671221346467E-07  -3.11291788306011E-07  -1.72508681533258E-13
      1.83172298911590E-09
      8.00000000000000E-01   8.00000000000000E-01   0.00000000000000E+00  -1.87096805960928E-11   5.00643303918734E-07
     -5.98921954768101E-12   5.00618605018590E-07   2.34769631617749E-13   0.00000000000000E+00   0.00000000000000E+00
      0.00000000000000E+00   1.05582659146320E-11  -1.97123255409092E-16  -2.18992410162306E-07  -2.18981852093515E-07
     -6.22603566781299E-14  -4.50000000000000E+01  -4.50000000000000E+01   0.00000000000000E+00   7.19233323566919E-09
     -6.26651262647964E-15  -2.88829079894230E-07  -2.81636752925074E-07  -1.72509274939620E-13
      1.98972099324456E-09
      8.00000000000000E-01   8.00000000000000E-01   0.00000000000000E+00  -2.25680017717762E-11   4.17219671330009E-07
     -5.16264140892714E-12   4.17191940686828E-07   2.34796952100006E-13   0.00000000000000E+00   0.00000000000000E+00
      0.00000000000000E+00   1.76016336327040E-11  -1.97086083931660E-16  -1.75947376034614E-07  -1.75929774598067E-07
     -6.22915898951013E-14  -4.50000000000000E+01  -4.50000000000000E+01   0.00000000000000E+00   4.18638385475238E-08
     -6.26642386919308E-15  -2.83125998369862E-07  -2.41262166088762E-07  -1.72505362204905E-13
      2.10821949634105E-09
      8.00000000000000E-01   8.00000000000000E-01   0.00000000000000E+00  -2.34102844529477E-11   3.47629500817845E-07
     -4.64111202117491E-12   3.47601449421371E-07   2.34808926578354E-13   0.00000000000000E+00   0.00000000000000E+00
      0.00000000000000E+00   2.03765510812888E-11  -1.97043564007229E-16  -1.32747572374224E-07  -1.32727196020186E-07
     -6.23098566028501E-14  -4.50000000000000E+01  -4.50000000000000E+01   0.00000000000000E+00   6.40271559969973E-08
     -6.26628099739363E-15  -2.78901403131901E-07  -2.14874253401185E-07  -1.72499069975503E-13
      2.28596725098579E-09
      8.00000000000000E-01   8.00000000000000E-01   0.00000000000000E+00  -2.12786111448266E-11   2.45808435352108E-07
     -3.97869409560861E-12   2.45783178046867E-07   2.34812544453340E-13   0.00000000000000E+00   0.00000000000000E+00
      0.00000000000000E+00   2.00512876769936E-11  -1.96952693613808E-16  -6.35830781743761E-08  -6.35630270836518E-08
     -6.23272651917374E-14  -4.50000000000000E+01  -4.50000000000000E+01   0.00000000000000E+00   9.04424147848505E-08
     -6.26596776911284E-15  -2.72662559482099E-07  -1.82220150963216E-07  -1.72485279261602E-13
      2.41927806696935E-09
      8.00000000000000E-01   8.00000000000000E-01   0.00000000000000E+00  -1.77524526931611E-11   1.79377884509856E-07
     -3.55829600748263E-12   1.79356573761155E-07   2.34804807572413E-13   0.00000000000000E+00   0.00000000000000E+00
      0.00000000000000E+00   1.70475183264661E-11  -1.96863930990633E-16  -1.63703903903785E-08  -1.63533430689160E-08
     -6.23325835376343E-14  -4.50000000000000E+01  -4.50000000000000E+01   0.00000000000000E+00   1.05065544471452E-07
     -6.26567119314892E-15  -2.68068768898020E-07  -1.63003230692239E-07  -1.72472224034778E-13
      2.61924429094468E-09
      8.00000000000000E-01   8.00000000000000E-01   0.00000000000000E+00  -1.16263266436437E-11   1.04510645798501E-07
     -3.02158902056716E-12   1.04495997882837E-07   2.34780121775964E-13   0.00000000000000E+00   0.00000000000000E+00
      0.00000000000000E+00   1.08188751971645E-11  -1.96706796758850E-16   3.66256241389565E-08   3.66364428174469E-08
     -6.23304789019110E-14  -4.50000000000000E+01  -4.50000000000000E+01   0.00000000000000E+00   1.20188955706835E-07
     -6.26515814406913E-15  -2.61321390141961E-07  -1.41132440700284E-07  -1.72449642874053E-13
      2.76921895892618E-09
      8.00000000000000E-01   8.00000000000000E-01   0.00000000000000E+00  -7.57409963874365E-12   6.78373815721928E-08
     -2.67874356372513E-12   6.78271287289903E-08   2.34754270208013E-13   0.00000000000000E+00   0.00000000000000E+00
      0.00000000000000E+00   6.37998285767138E-12  -1.96579975614977E-16   6.09665259773623E-08   6.09729057636400E-08
     -6.23232217084804E-14  -4.50000000000000E+01  -4.50000000000000E+01   0.00000000000000E+00   1.27559316747175E-07
     -6.26473562199509E-15  -2.56359344975070E-07  -1.28800034492631E-07  -1.72431048499533E-13
      2.88169995991231E-09
      8.00000000000000E-01   8.00000000000000E-01   0.00000000000000E+00  -5.25618784993937E-12   4.93943697722975E-08
     -2.44883952822355E-12   4.93866647449194E-08   2.34732328761082E-13   0.00000000000000E+00   0.00000000000000E+00
      0.00000000000000E+00   3.72147831152957E-12  -1.96485993963042E-16   7.16586723970766E-08   7.16623936789021E-08
     -6.23158613363591E-14  -4.50000000000000E+01  -4.50000000000000E+01   0.00000000000000E+00   1.31621214965501E-07
     -6.26440426553820E-15  -2.52670267124918E-07  -1.21049058423821E-07  -1.72416467424722E-13
      3.05042146139149E-09
      8.00000000000000E-01   8.00000000000000E-01   0.00000000000000E+00  -2.87405614309755E-12   3.19668828138585E-08
     -2.14074115770056E-12   3.19618680165577E-08   2.34697168466625E-13   0.00000000000000E+00   0.00000000000000E+00
      0.00000000000000E+00   9.50488852027842E-13  -1.96354871121551E-16   7.89064725133952E-08   7.89074228058923E-08
     -6.23033081866100E-14  -4.50000000000000E+01  -4.50000000000000E+01   0.00000000000000E+00   1.36241473488127E-07
     -6.26389047067808E-15  -2.47110758046687E-07  -1.10869290822450E-07  -1.72393860280016E-13
      3.17696258750088E-09
      8.00000000000000E-01   8.00000000000000E-01   0.00000000000000E+00  -1.80186262711666E-12   2.43760024178655E-08
     -1.93512418656418E-12   2.43722654310518E-08   2.34669885031236E-13   0.00000000000000E+00   0.00000000000000E+00
      0.00000000000000E+00  -3.21910722103429E-13  -1.96267761927573E-16   7.95650580654309E-08   7.95647359584410E-08
     -6.22934362366153E-14  -4.50000000000000E+01  -4.50000000000000E+01   0.00000000000000E+00   1.38902416220703E-07
     -6.26349472387186E-15  -2.42839411346701E-07  -1.03937001389493E-07  -1.72376448794620E-13
      3.36677427666497E-09
      8.00000000000000E-01   8.00000000000000E-01   0.00000000000000E+00  -9.22720990981056E-13   1.77701112343738E-08
     -1.66192689510085E-12   1.77675265864877E-08   2.34628668732969E-13   0.00000000000000E+00   0.00000000000000E+00
      0.00000000000000E+00  -1.36751827498269E-12  -1.96158195608957E-16   7.63486094915711E-08   7.63472417771379E-08
     -6.22788803026404E-14  -4.50000000000000E+01  -4.50000000000000E+01   0.00000000000000E+00   1.41912074977958E-07
     -6.26288870764365E-15  -2.36026837078695E-07  -9.41147683636258E-08  -1.72349788430328E-13
      3.50913304353803E-09
      8.00000000000000E-01   8.00000000000000E-01   0.00000000000000E+00  -6.09440114932757E-13   1.49302415561329E-08
     -1.48182089026292E-12   1.49281502951277E-08   2.34597996514819E-13   0.00000000000000E+00   0.00000000000000E+00
      0.00000000000000E+00  -1.72784307767414E-12  -1.96092205564860E-16   7.21018659166978E-08   7.21001378775279E-08
     -6.22685187896462E-14  -4.50000000000000E+01  -4.50000000000000E+01   0.00000000000000E+00   1.43368011566336E-07
     -6.26242698810802E-15  -2.30396293476564E-07  -8.70282881726554E-08  -1.72329477725172E-13
      3.72267119384763E-09
      8.00000000000000E-01   8.00000000000000E-01   0.00000000000000E+00  -3.89912448578996E-13   1.21476991798724E-08
     -1.24626899345292E-12   1.21460629984304E-08   2.34553028009090E-13   0.00000000000000E+00   0.00000000000000E+00
      0.00000000000000E+00  -1.93725622178094E-12  -1.96015459959238E-16   6.45781621046864E-08   6.45762246524492E-08
     -6.22542444244513E-14  -4.50000000000000E+01  -4.50000000000000E+01   0.00000000000000E+00   1.43922650769934E-07
     -6.26172917091684E-15  -2.20644932159085E-07  -7.67222876508798E-08  -1.72298783584639E-13
      3.88282480657983E-09
      8.00000000000000E-01   8.00000000000000E-01   0.00000000000000E+00  -3.18476265462803E-13   1.06439484828070E-08
     -1.09386026379190E-12   1.06425361462777E-08   2.34520446045280E-13   0.00000000000000E+00   0.00000000000000E+00
      0.00000000000000E+00  -1.95341680670527E-12  -1.95972260841014E-16   5.86188954890043E-08   5.86169418762253E-08
     -6.22446293257479E-14  -4.50000000000000E+01  -4.50000000000000E+01   0.00000000000000E+00   1.42756225959918E-07
     -6.26120699208210E-15  -2.12015697721214E-07  -6.92594780225031E-08  -1.72275816719532E-13
      4.12305522567812E-09
      8.00000000000000E-01   8.00000000000000E-01   0.00000000000000E+00  -2.60787589617930E-13   8.79607562628151E-09
     -8.98557933687945E-13   8.79491628075820E-09   2.34474051940232E-13   0.00000000000000E+00   0.00000000000000E+00
      0.00000000000000E+00  -1.87758154281349E-12  -1.95924624258881E-16   4.98156367768280E-08   4.98137589993606E-08
     -6.22319916022622E-14  -4.50000000000000E+01  -4.50000000000000E+01   0.00000000000000E+00   1.37945378038767E-07
     -6.26043944778914E-15  -1.96554047058446E-07  -5.86086752801188E-08  -1.72242060337970E-13
      4.30322804000184E-09
      8.00000000000000E-01   8.00000000000000E-01   0.00000000000000E+00  -2.32419135265778E-13   7.61107938063106E-09
     -7.74980490735568E-13   7.61007198100506E-09   2.34441620355174E-13   0.00000000000000E+00   0.00000000000000E+00
      0.00000000000000E+00  -1.76894725449910E-12  -1.95899461142778E-16   4.35412460659442E-08   4.35394769227902E-08
     -6.22238760910971E-14  -4.50000000000000E+01  -4.50000000000000E+01   0.00000000000000E+00   1.31787408113324E-07
     -6.25988651681658E-15  -1.82936950757233E-07  -5.11495489037954E-08  -1.72217744264078E-13
      4.57348726148743E-09
      8.00000000000000E-01   8.00000000000000E-01   0.00000000000000E+00  -1.95907031981711E-13   6.06750782829266E-09
     -6.20185588394751E-13   6.06669173567229E-09   2.34397563922968E-13   0.00000000000000E+00   0.00000000000000E+00