DF-ISE text

Info {
  version   = 1.0
  type      = xyplot
  datasets  = [
    "time"
    "Ntop OuterVoltage" "Ntop InnerVoltage" "Ntop QuasiFermiPotential" "Ntop DisplacementCurrent" "Ntop eCurrent"
    "Ntop hCurrent" "Ntop TotalCurrent" "Ntop Charge" "Ptop OuterVoltage" "Ptop InnerVoltage"
    "Ptop QuasiFermiPotential" "Ptop DisplacementCurrent" "Ptop eCurrent" "Ptop hCurrent" "Ptop TotalCurrent"
    "Ptop Charge" "Pbot OuterVoltage" "Pbot InnerVoltage" "Pbot QuasiFermiPotential" "Pbot DisplacementCurrent"
    "Pbot eCurrent" "Pbot hCurrent" "Pbot TotalCurrent" "Pbot Charge" ]
  functions = [
    Time
    OuterVoltage InnerVoltage QuasiFermiPotential DisplacementCurrent eCurrent
    hCurrent TotalCurrent Charge OuterVoltage InnerVoltage
    QuasiFermiPotential DisplacementCurrent eCurrent hCurrent TotalCurrent
    Charge OuterVoltage InnerVoltage QuasiFermiPotential DisplacementCurrent
    eCurrent hCurrent TotalCurrent Charge ]
}

Data {
      5.00000000000000E-13
      8.00000000000000E-01   8.00000000000000E-01   0.00000000000000E+00   1.15292608797546E-14   7.16403408617732E-12
     -6.61848745424404E-12   5.57075892813038E-13   2.32745367027464E-13   0.00000000000000E+00   0.00000000000000E+00
      0.00000000000000E+00  -1.03073965100789E-13  -1.97181352815161E-16   1.99498098279926E-11   1.98465386815390E-11
     -7.40436337748777E-14  -4.00000000000000E+01  -4.00000000000000E+01   0.00000000000000E+00  -3.59616620351251E-13
      1.31987529831322E-11  -3.32427509371328E-11  -2.04036145743519E-11  -1.58701733252586E-13
      1.25000000000000E-12
      8.00000000000000E-01   8.00000000000000E-01   0.00000000000000E+00   8.75925682431601E-14   3.21996566642454E-11
     -3.05397410129689E-11   1.74750821951964E-12   2.32745367027760E-13   0.00000000000000E+00   0.00000000000000E+00
      0.00000000000000E+00  -4.44563925454745E-14  -1.97181352813012E-16   2.10183923465888E-11   2.09737387726905E-11
     -7.40436337743103E-14  -4.00000000000000E+01  -4.00000000000000E+01   0.00000000000000E+00  -2.05812172071353E-12
      6.09111575766302E-11  -8.15742828481269E-11  -2.27212469922102E-11  -1.58701733253450E-13
      2.37500000000000E-12
      8.00000000000000E-01   8.00000000000000E-01   0.00000000000000E+00   6.57427809178808E-13   2.67818421481698E-10
     -2.52688883183192E-10   1.57869661076844E-11   2.32745367032059E-13   0.00000000000000E+00   0.00000000000000E+00
      0.00000000000000E+00   1.00504086766449E-12  -1.97181352787844E-16   3.35219170585682E-11   3.45267607448799E-11
     -7.40436337657898E-14  -4.00000000000000E+01  -4.00000000000000E+01   0.00000000000000E+00  -2.23238879403068E-11
      5.03866160196364E-10  -5.31855999108621E-10  -5.03137268525644E-11  -1.58701733266270E-13
      4.06250000000000E-12
      8.00000000000000E-01   8.00000000000000E-01   0.00000000000000E+00   9.85937911168652E-12   4.14672917994669E-09
     -3.83334895862297E-09   3.23239600435406E-10   2.32745367157693E-13   0.00000000000000E+00   0.00000000000000E+00
      0.00000000000000E+00   1.44925851880542E-11  -1.97181352203623E-16   3.23459618622837E-10   3.37952006629539E-10
     -7.40436335077601E-14  -4.00000000000000E+01  -4.00000000000000E+01   0.00000000000000E+00  -4.71066376049224E-10
      7.63978056207227E-09  -7.82990579308799E-09  -6.61191607064943E-10  -1.58701733649934E-13
      6.59375000000000E-12
      8.00000000000000E-01   8.00000000000000E-01   0.00000000000000E+00   1.95473803038093E-10   8.59038247920961E-08
     -7.67145227314864E-08   9.38477586364780E-09   2.32745372466311E-13   0.00000000000000E+00   0.00000000000000E+00
      0.00000000000000E+00   2.93231495149386E-10  -1.97181334314882E-16   9.18970931190545E-09   9.48294060987350E-09
     -7.40436221893511E-14  -4.00000000000000E+01  -4.00000000000000E+01   0.00000000000000E+00  -1.38453467067261E-08
      1.52755479365597E-07  -1.57777849132392E-07  -1.88677164735214E-08  -1.58701750276960E-13
      1.03906250000000E-11
      8.00000000000000E-01   8.00000000000000E-01   0.00000000000000E+00   1.62940008435780E-09   7.63192507731702E-07
     -6.38512861756860E-07   1.26309046059200E-07   2.32745484247118E-13   0.00000000000000E+00   0.00000000000000E+00
      0.00000000000000E+00   2.43527469243517E-09  -1.97181097854207E-16   1.26192399795993E-07   1.28627674291247E-07
     -7.40433782023432E-14  -4.00000000000000E+01  -4.00000000000000E+01   0.00000000000000E+00  -1.87128709071887E-07
      1.26924293030596E-06  -1.33705094158451E-06  -2.54936720350446E-07  -1.58702106044775E-13
      1.60859375000000E-11
      8.00000000000000E-01   8.00000000000000E-01   0.00000000000000E+00   9.48864870648557E-10   6.49790374991394E-07
     -3.41682160047255E-07   3.09057079814788E-07   2.32746066814560E-13   0.00000000000000E+00   0.00000000000000E+00
      0.00000000000000E+00   1.16553655049757E-09  -1.97180735195890E-16   3.04524349884261E-07   3.05689886237578E-07
     -7.40421169111760E-14  -4.00000000000000E+01  -4.00000000000000E+01   0.00000000000000E+00  -4.49215646572062E-07
      6.68803774546470E-07  -8.34335094026774E-07  -6.14746966052366E-07  -1.58703949903384E-13
      2.46289062500000E-11
      8.00000000000000E-01   8.00000000000000E-01   0.00000000000000E+00   1.34870880578151E-10   4.13250193606953E-07
     -8.53485691310047E-09   4.04850207574431E-07   2.32747524909938E-13   0.00000000000000E+00   0.00000000000000E+00
      0.00000000000000E+00  -1.65549842133322E-10  -1.97180623551173E-16   3.57393834266529E-07   3.57228284227215E-07
     -7.40392289436008E-14  -4.00000000000000E+01  -4.00000000000000E+01   0.00000000000000E+00  -5.49701138844234E-07
      1.23928112313539E-09  -2.13616634080546E-07  -7.62078491801645E-07  -1.58708295966337E-13
      3.74433593750000E-11
      8.00000000000000E-01   8.00000000000000E-01   0.00000000000000E+00   1.02911230573308E-10   4.47928926091900E-07
     -7.19541803034314E-09   4.40836419292130E-07   2.32750144938691E-13   0.00000000000000E+00   0.00000000000000E+00
      0.00000000000000E+00  -1.31028004764956E-10  -1.97180688472721E-16   3.22061534526974E-07   3.21930506325028E-07
     -7.40348826995940E-14  -4.00000000000000E+01  -4.00000000000000E+01   0.00000000000000E+00  -5.37467127000683E-07
     -5.94234086383136E-15  -2.25299792674133E-07  -7.62766925617157E-07  -1.58715262239098E-13
      5.66650390625000E-11
      8.00000000000000E-01   8.00000000000000E-01   0.00000000000000E+00   7.35468123320988E-11   4.86336688780859E-07
     -6.23112537167652E-09   4.80179110221515E-07   2.32754523412672E-13   0.00000000000000E+00   0.00000000000000E+00
      0.00000000000000E+00  -9.80097864318783E-11  -1.97180764137396E-16   2.80505003805185E-07   2.80406993821572E-07
     -7.40291063064192E-14  -4.00000000000000E+01  -4.00000000000000E+01   0.00000000000000E+00  -5.19286995831489E-07
     -5.94267716034943E-15  -2.41299102268921E-07  -7.60586104043088E-07  -1.58725417106254E-13
      8.54975585937500E-11
      8.00000000000000E-01   8.00000000000000E-01   0.00000000000000E+00   4.63530020180844E-11   5.24350909590080E-07
     -5.02008647627990E-09   5.19377176115818E-07   2.32761729337647E-13   0.00000000000000E+00   0.00000000000000E+00
      0.00000000000000E+00  -6.68065404358121E-11  -1.97180844376884E-16   2.35825874620001E-07   2.35759067882384E-07
     -7.40216905745574E-14  -4.00000000000000E+01  -4.00000000000000E+01   0.00000000000000E+00  -4.95289654229725E-07
     -5.94303049856256E-15  -2.59846583825447E-07  -7.55136243998202E-07  -1.58740038763089E-13
      1.28746337890625E-10
      8.00000000000000E-01   8.00000000000000E-01   0.00000000000000E+00   2.32700306881328E-11   5.55936550905723E-07
     -3.62858116734580E-09   5.52331239769065E-07   2.32773286713406E-13   0.00000000000000E+00   0.00000000000000E+00
      0.00000000000000E+00  -3.99869098773168E-11  -1.97180920847340E-16   1.92573030581251E-07   1.92533043474193E-07
     -7.40124762956234E-14  -4.00000000000000E+01  -4.00000000000000E+01   0.00000000000000E+00  -4.65869923752791E-07
     -5.94353328010511E-15  -2.78994353546934E-07  -7.44864283243259E-07  -1.58760810417782E-13
      1.93619506835937E-10
      8.00000000000000E-01   8.00000000000000E-01   0.00000000000000E+00   6.62244990021147E-12   5.73930825329279E-07
     -2.22826698614369E-09   5.71709180793036E-07   2.32791165949844E-13   0.00000000000000E+00   0.00000000000000E+00
      0.00000000000000E+00  -2.09428953352584E-11  -1.97180984693919E-16   1.55878985210764E-07   1.55858042118248E-07
     -7.40012486075881E-14  -4.00000000000000E+01  -4.00000000000000E+01   0.00000000000000E+00  -4.32311997893287E-07
     -5.94423889250381E-15  -2.95255219073756E-07  -7.27567222911282E-07  -1.58789917342255E-13
      2.42274383544922E-10
      8.00000000000000E-01   8.00000000000000E-01   0.00000000000000E+00   1.19738540382090E-12   5.76066287646598E-07
     -1.55259694011809E-09   5.74514888091884E-07   2.32804549294699E-13   0.00000000000000E+00   0.00000000000000E+00
      0.00000000000000E+00  -1.50087337740818E-11  -1.97181013446818E-16   1.39386915474356E-07   1.39371906543401E-07
     -7.39940858521138E-14  -4.00000000000000E+01  -4.00000000000000E+01   0.00000000000000E+00  -4.12526931990075E-07
     -5.94473741638131E-15  -3.01359856700473E-07  -7.13886794635285E-07  -1.58810463442585E-13
      2.78765541076660E-10
      8.00000000000000E-01   8.00000000000000E-01   0.00000000000000E+00  -9.20307770856187E-13   5.74885567996788E-07
     -1.18740383310219E-09   5.73697243855915E-07   2.32814462249016E-13   0.00000000000000E+00   0.00000000000000E+00
      0.00000000000000E+00  -1.28216001213749E-11  -1.97181030731097E-16   1.29741712531150E-07   1.29728890733848E-07
     -7.39891842659393E-14  -4.00000000000000E+01  -4.00000000000000E+01   0.00000000000000E+00  -3.99529374390348E-07
     -5.94509698902405E-15  -3.03896754254320E-07  -7.03426134589765E-07  -1.58825277983078E-13
      3.33502277374268E-10
      8.00000000000000E-01   8.00000000000000E-01   0.00000000000000E+00  -2.40946421144751E-12   5.71245826768786E-07
     -7.96379959688447E-10   5.70447037344886E-07   2.32829100156915E-13   0.00000000000000E+00   0.00000000000000E+00
      0.00000000000000E+00  -1.14190600418369E-11  -1.97181054376315E-16   1.17147643257255E-07   1.17136224000032E-07
     -7.39824394341621E-14  -4.00000000000000E+01  -4.00000000000000E+01   0.00000000000000E+00  -3.81919233389371E-07
     -5.94561607819223E-15  -3.05664022009930E-07  -6.87583261344918E-07  -1.58846660722753E-13
      3.74554829597473E-10
      8.00000000000000E-01   8.00000000000000E-01   0.00000000000000E+00  -2.74171145045564E-12   5.67978393741608E-07
     -5.93358585881225E-10   5.67382293444277E-07   2.32839907002021E-13   0.00000000000000E+00   0.00000000000000E+00
      0.00000000000000E+00  -1.12208786025444E-11  -1.97181071914974E-16   1.08283038197934E-07   1.08271817122150E-07
     -7.39778186370381E-14  -4.00000000000000E+01  -4.00000000000000E+01   0.00000000000000E+00  -3.69742447579669E-07
     -5.94599064230532E-15  -3.05911657040766E-07  -6.75654110566425E-07  -1.58862088364983E-13
      4.36133657932282E-10
      8.00000000000000E-01   8.00000000000000E-01   0.00000000000000E+00  -2.64858685053342E-12   5.63258680517491E-07
     -3.84162187455977E-10   5.62871869743184E-07   2.32855893102865E-13   0.00000000000000E+00   0.00000000000000E+00
      0.00000000000000E+00  -1.15370545991727E-11  -1.97181099635283E-16   9.49140856681788E-08   9.49025484163986E-08
     -7.39715697402901E-14  -4.00000000000000E+01  -4.00000000000000E+01   0.00000000000000E+00  -3.52504481934982E-07
     -5.94653049849963E-15  -3.05269930278069E-07  -6.57774418159582E-07  -1.58884323362576E-13
      5.28501900434494E-10
      8.00000000000000E-01   8.00000000000000E-01   0.00000000000000E+00  -1.97787388276266E-12   5.57602712860593E-07
     -2.04111237697971E-10   5.57396623749013E-07   2.32879534931829E-13   0.00000000000000E+00   0.00000000000000E+00
      0.00000000000000E+00  -1.25093613538308E-11  -1.97181145906355E-16   7.37095410280867E-08   7.36970314695518E-08
     -7.39637859060904E-14  -4.00000000000000E+01  -4.00000000000000E+01   0.00000000000000E+00  -3.28040443432250E-07
     -5.94729347876066E-15  -3.03053205839021E-07  -6.31093655218565E-07  -1.58915749025740E-13
      5.97778082311153E-10
      8.00000000000000E-01   8.00000000000000E-01   0.00000000000000E+00  -1.37865640387311E-12   5.54732674786152E-07
     -1.31328602293567E-10   5.54599967527455E-07   2.32897134014074E-13   0.00000000000000E+00   0.00000000000000E+00
      0.00000000000000E+00  -1.32834624965893E-11  -1.97181184570716E-16   5.66456066264172E-08   5.66323229667394E-08
     -7.39592737927466E-14  -4.00000000000000E+01  -4.00000000000000E+01   0.00000000000000E+00  -3.10340775230935E-07
     -5.94783027227486E-15  -3.00891509315430E-07  -6.11232290494195E-07  -1.58937860221326E-13
      7.01692355126143E-10
      8.00000000000000E-01   8.00000000000000E-01   0.00000000000000E+00  -5.81917689833658E-13   5.52471786151371E-07
     -7.14878443430233E-11   5.52399716389338E-07   2.32923560693024E-13   0.00000000000000E+00   0.00000000000000E+00
      0.00000000000000E+00  -1.42527679448958E-11  -1.97181248408643E-16   2.93145727651960E-08   2.93003198000698E-08
     -7.39548040590977E-14  -4.00000000000000E+01  -4.00000000000000E+01   0.00000000000000E+00  -2.84356147360128E-07
     -5.94858025685247E-15  -2.97343882880698E-07  -5.81700036189406E-07  -1.58968756633928E-13
      7.79628059737384E-10
      8.00000000000000E-01   8.00000000000000E-01   0.00000000000000E+00  -1.02284553582535E-13   5.52120374103451E-07
     -4.83386717757994E-11   5.52071933147122E-07   2.32943528236061E-13   0.00000000000000E+00   0.00000000000000E+00
      0.00000000000000E+00  -1.48043365304206E-11  -1.97181300313584E-16   7.69603178556224E-09   7.68122725185051E-09
     -7.39533583322764E-14  -4.00000000000000E+01  -4.00000000000000E+01   0.00000000000000E+00  -2.65172700491320E-07
     -5.94909997905683E-15  -2.94580453958550E-07  -5.59753160398970E-07  -1.58990169903786E-13
      8.96531616654247E-10
      8.00000000000000E-01   8.00000000000000E-01   0.00000000000000E+00   4.07577675338895E-13   5.53144918069866E-07
     -2.96747069193743E-11   5.53115650940622E-07   2.32973914951226E-13   0.00000000000000E+00   0.00000000000000E+00
      0.00000000000000E+00  -1.53446521359887E-11  -1.97181383424331E-16  -2.59569239834294E-08  -2.59722688327468E-08
     -7.39544089097687E-14  -4.00000000000000E+01  -4.00000000000000E+01   0.00000000000000E+00  -2.36745477550221E-07
     -5.94981190235441E-15  -2.90397898607843E-07  -5.27143382107876E-07  -1.59019506041457E-13
      9.84209284341894E-10
      8.00000000000000E-01   8.00000000000000E-01   0.00000000000000E+00   6.21982098440648E-13   5.54736196551262E-07
     -2.24323928024423E-11   5.54714386140558E-07   2.32997135931489E-13   0.00000000000000E+00   0.00000000000000E+00
      0.00000000000000E+00  -1.55242341266323E-11  -1.97181449159990E-16  -5.17774156924652E-08  -5.17929401237733E-08
     -7.39577976685217E-14  -4.00000000000000E+01  -4.00000000000000E+01   0.00000000000000E+00  -2.15659736150527E-07
     -5.95029312460081E-15  -2.87261703915965E-07  -5.02921446016785E-07  -1.59039338262967E-13
      1.11572578587336E-09
      8.00000000000000E-01   8.00000000000000E-01   0.00000000000000E+00   6.30841910935225E-13   5.57538896590728E-07
     -1.63271292464583E-11   5.57523200303392E-07   2.33032755129288E-13   0.00000000000000E+00   0.00000000000000E+00
      0.00000000000000E+00  -1.53718442990498E-11  -1.97181551866133E-16  -9.05569289235224E-08  -9.05723009650030E-08
     -7.39671139762875E-14  -4.00000000000000E+01  -4.00000000000000E+01   0.00000000000000E+00  -1.84367640605986E-07
     -5.95093128148333E-15  -2.82583252781470E-07  -4.66950899338388E-07  -1.59065641153001E-13
      1.21436316202197E-09
      8.00000000000000E-01   8.00000000000000E-01   0.00000000000000E+00   3.28219449995180E-13   5.59243268778513E-07
     -1.37168723405971E-11   5.59229880125622E-07   2.33060080721380E-13   0.00000000000000E+00   0.00000000000000E+00
      0.00000000000000E+00  -1.48355968888532E-11  -1.97181631294934E-16  -1.18961303779467E-07  -1.18976139573538E-07
     -7.39773997715309E-14  -4.00000000000000E+01  -4.00000000000000E+01   0.00000000000000E+00  -1.61154834052160E-07
     -5.95134465758946E-15  -2.79098900548579E-07  -4.40253740552084E-07  -1.59082680949848E-13
      1.36231922624487E-09
      8.00000000000000E-01   8.00000000000000E-01   0.00000000000000E+00  -8.29574200738462E-13   5.59080650300256E-07
     -1.12032905405827E-11   5.59068617435515E-07   2.33101819731288E-13   0.00000000000000E+00   0.00000000000000E+00
      0.00000000000000E+00  -1.30690255020818E-11  -1.97181751862616E-16  -1.58385821606841E-07  -1.58398890829525E-07
     -7.39978431072556E-14  -4.00000000000000E+01  -4.00000000000000E+01   0.00000000000000E+00  -1.26755055226605E-07
     -5.95186124351447E-15  -2.73914665427525E-07  -4.00669726605991E-07  -1.59103976624032E-13
      1.47328627441205E-09
      8.00000000000000E-01   8.00000000000000E-01   0.00000000000000E+00  -2.39565929152097E-12   5.54978623315170E-07
     -9.92520738511208E-12   5.54966302448494E-07   2.33133364148934E-13   0.00000000000000E+00   0.00000000000000E+00
      0.00000000000000E+00  -1.07693923176875E-11  -1.97181840117214E-16  -1.83572091675997E-07  -1.83582861265496E-07
     -7.40167346142928E-14  -4.00000000000000E+01  -4.00000000000000E+01   0.00000000000000E+00  -1.01323520941854E-07
     -5.95216816642772E-15  -2.70059914288974E-07  -3.71383441182997E-07  -1.59116629534642E-13
      1.63973684666282E-09
      8.00000000000000E-01   8.00000000000000E-01   0.00000000000000E+00  -5.97174715080260E-12   5.37835822173460E-07
     -8.49071499164023E-12   5.37821359711318E-07   2.33179754050733E-13   0.00000000000000E+00   0.00000000000000E+00
      0.00000000000000E+00  -5.53604570485457E-12  -1.97181952546649E-16  -2.09491200119951E-07  -2.09496736362837E-07
     -7.40493747046446E-14  -4.00000000000000E+01  -4.00000000000000E+01   0.00000000000000E+00  -6.39917821176406E-08
     -5.95250171546163E-15  -2.64332835278340E-07  -3.28324623348482E-07  -1.59130379346091E-13
      1.76457477585089E-09
      8.00000000000000E-01   8.00000000000000E-01   0.00000000000000E+00  -9.40941342880129E-12   5.13491180811235E-07
     -7.65110836675830E-12   5.13474120289440E-07   2.33212528510773E-13   0.00000000000000E+00   0.00000000000000E+00
      0.00000000000000E+00  -4.20905877745013E-13  -1.97182000586715E-16  -2.16452272147214E-07  -2.16452693250274E-07
     -7.40758548410648E-14  -4.00000000000000E+01  -4.00000000000000E+01   0.00000000000000E+00  -3.69393959993370E-08
     -5.95265444431815E-15  -2.60082025087175E-07  -2.97021427039166E-07  -1.59136673669708E-13
      1.85820322274195E-09
      8.00000000000000E-01   8.00000000000000E-01   0.00000000000000E+00  -1.21385912710321E-11   4.87712845179706E-07
     -7.10801593919389E-12   4.87693598572496E-07   2.33235079346605E-13   0.00000000000000E+00   0.00000000000000E+00
      0.00000000000000E+00   3.74993563824636E-12  -1.97181999378351E-16  -2.13333202734297E-07  -2.13329452995841E-07
     -7.40958630902123E-14  -4.00000000000000E+01  -4.00000000000000E+01   0.00000000000000E+00  -1.74439882716422E-08
     -5.95271617964062E-15  -2.56920151352297E-07  -2.74364145576655E-07  -1.59139216256394E-13
      1.99864589307854E-09
      8.00000000000000E-01   8.00000000000000E-01   0.00000000000000E+00  -1.58186222321732E-11   4.37274571775754E-07
     -6.39593539916359E-12   4.37252357218123E-07   2.33264130529731E-13   0.00000000000000E+00   0.00000000000000E+00
      0.00000000000000E+00   9.70475012364271E-12  -1.97181904289155E-16  -1.95011418006574E-07  -1.95001713453632E-07
     -7.41244049038287E-14  -4.00000000000000E+01  -4.00000000000000E+01   0.00000000000000E+00   9.97146478342709E-09
     -5.95272866659081E-15  -2.52222102595187E-07  -2.42250643764489E-07  -1.59139725625903E-13
      2.10397789583097E-09
      8.00000000000000E-01   8.00000000000000E-01   0.00000000000000E+00  -1.78203331695626E-11   3.91710897328580E-07
     -5.92731447141470E-12   3.91687149680939E-07   2.33281250636537E-13   0.00000000000000E+00   0.00000000000000E+00
      0.00000000000000E+00   1.33416519360980E-11  -1.97181736962786E-16  -1.71665856770960E-07  -1.71652515316206E-07
     -7.41435698918412E-14  -4.00000000000000E+01  -4.00000000000000E+01   0.00000000000000E+00   2.87013158819331E-08
     -5.95267919359720E-15  -2.48735944293987E-07  -2.20034634364733E-07  -1.59137680744696E-13
      2.26197589995963E-09
      8.00000000000000E-01   8.00000000000000E-01   0.00000000000000E+00  -1.89829429982999E-11   3.16625270118991E-07
     -5.30734975351909E-12   3.16600979826240E-07   2.33298068912114E-13   0.00000000000000E+00   0.00000000000000E+00
      0.00000000000000E+00   1.65392827368893E-11  -1.97181290769177E-16  -1.26181890127964E-07  -1.26165351042408E-07
     -7.41668852426604E-14  -4.00000000000000E+01  -4.00000000000000E+01   0.00000000000000E+00   5.31369668540273E-08
     -5.95252182986127E-15  -2.43572589685337E-07  -1.90435628783832E-07  -1.59131183669453E-13
      2.38047440305613E-09
      8.00000000000000E-01   8.00000000000000E-01   0.00000000000000E+00  -1.83267194266003E-11   2.59652244452928E-07
     -4.89731338483466E-12   2.59629020420117E-07   2.33303357979005E-13   0.00000000000000E+00   0.00000000000000E+00
      0.00000000000000E+00   1.69520487865103E-11  -1.97180785676771E-16  -8.81857707041538E-08  -8.81688188525481E-08
     -7.41793833725866E-14  -4.00000000000000E+01  -4.00000000000000E+01   0.00000000000000E+00   6.82961970011688E-08
     -5.95234715993020E-15  -2.39756392616390E-07  -1.71460201567568E-07  -1.59123974606417E-13
      2.55822215770087E-09
      8.00000000000000E-01   8.00000000000000E-01   0.00000000000000E+00  -1.54345458004713E-11   1.82151890669793E-07
     -4.35352571284138E-12   1.82132102598280E-07   2.33300097977856E-13   0.00000000000000E+00   0.00000000000000E+00
      0.00000000000000E+00   1.48911014709752E-11  -1.97179753243456E-16  -3.39293827674237E-08  -3.39144918631325E-08
     -7.41898736976073E-14  -4.00000000000000E+01  -4.00000000000000E+01   0.00000000000000E+00   8.59152113110072E-08
     -5.95201393585345E-15  -2.34132816094141E-07  -1.48217610735147E-07  -1.59110224280248E-13
      2.69153297368442E-09
      8.00000000000000E-01   8.00000000000000E-01   0.00000000000000E+00  -1.24340345818334E-11   1.34295201303760E-07
     -3.99290816055924E-12   1.34278774361017E-07   2.33289974882281E-13   0.00000000000000E+00   0.00000000000000E+00
      0.00000000000000E+00   1.20170276430687E-11  -1.97178789544360E-16   2.41559442432479E-10   2.53576272896758E-10
     -7.41918567966674E-14  -4.00000000000000E+01  -4.00000000000000E+01   0.00000000000000E+00   9.54679971594518E-08
     -5.95172051403445E-15  -2.30000341841645E-07  -1.34532350633914E-07  -1.59098118085615E-13
      2.89149919765975E-09
      8.00000000000000E-01   8.00000000000000E-01   0.00000000000000E+00  -7.98397877173286E-12   8.18222657251552E-08
     -3.51283066401896E-12   8.18107689157195E-08   2.33265689953768E-13   0.00000000000000E+00   0.00000000000000E+00
      0.00000000000000E+00   7.31308221287551E-12  -1.97177150084822E-16   3.68830271957708E-08   3.68903400808065E-08
     -7.41876785680038E-14  -4.00000000000000E+01  -4.00000000000000E+01   0.00000000000000E+00   1.05242269526790E-07
     -5.95123312143958E-15  -2.23943372572083E-07  -1.18701108996526E-07  -1.59078011385764E-13
      3.04147386564125E-09
      8.00000000000000E-01   8.00000000000000E-01   0.00000000000000E+00  -5.27586080932251E-12   5.62482781147946E-08
     -3.19310982862900E-12   5.62398091441566E-08   2.33242503180756E-13   0.00000000000000E+00   0.00000000000000E+00
      0.00000000000000E+00   4.28365443372732E-12  -1.97175863186922E-16   5.32789936918778E-08   5.32832771491357E-08
     -7.41806413884489E-14  -4.00000000000000E+01  -4.00000000000000E+01   0.00000000000000E+00   1.09980992231136E-07
     -5.95084160522842E-15  -2.19504072573586E-07  -1.09523086293292E-07  -1.59061861792308E-13
      3.26643586761350E-09
      8.00000000000000E-01   8.00000000000000E-01   0.00000000000000E+00  -2.59009532401040E-12   3.36823763357625E-08
     -2.76666456933235E-12   3.36770195758692E-08   2.33203523099260E-13   0.00000000000000E+00   0.00000000000000E+00
      0.00000000000000E+00   1.17522553451382E-12  -1.97174037580640E-16   6.45758770157086E-08   6.45770520440690E-08
     -7.41669530144026E-14  -4.00000000000000E+01  -4.00000000000000E+01   0.00000000000000E+00   1.14694447365283E-07
     -5.95022838613886E-15  -2.12948513034993E-07  -9.82540716199382E-08  -1.59036570084857E-13
      3.43515736909269E-09
      8.00000000000000E-01   8.00000000000000E-01   0.00000000000000E+00  -1.48202298383443E-12   2.48257348224701E-08
     -2.48333925748558E-12   2.48217694602287E-08   2.33172696170700E-13   0.00000000000000E+00   0.00000000000000E+00
      0.00000000000000E+00  -1.38192472341136E-13  -1.97172847699124E-16   6.61018291306668E-08   6.61016907410216E-08
     -7.41556854733261E-14  -4.00000000000000E+01  -4.00000000000000E+01   0.00000000000000E+00   1.17103471226302E-07
     -5.94975409916021E-15  -2.08026925477798E-07  -9.09234602012503E-08  -1.59017010697373E-13
      3.56169849520208E-09
      8.00000000000000E-01   8.00000000000000E-01   0.00000000000000E+00  -1.00112626953469E-12   2.07296645356054E-08
     -2.28907580129050E-12   2.07263743335345E-08   2.33149332784954E-13   0.00000000000000E+00   0.00000000000000E+00
      0.00000000000000E+00  -7.18599918145710E-13  -1.97172088914451E-16   6.50180742990047E-08   6.50173555019144E-08
     -7.41472314079270E-14  -4.00000000000000E+01  -4.00000000000000E+01   0.00000000000000E+00   1.18515001247979E-07
     -5.94939254142171E-15  -2.04258725134035E-07  -8.57437298354488E-08  -1.59002101377027E-13
      3.65660433978412E-09
      8.00000000000000E-01   8.00000000000000E-01   0.00000000000000E+00  -7.66330383441432E-13   1.85282596443791E-08
     -2.15287910619145E-12   1.85253404348894E-08   2.33131837966676E-13   0.00000000000000E+00   0.00000000000000E+00
      0.00000000000000E+00  -9.97764027507138E-13  -1.97171598749338E-16   6.34433428043982E-08   6.34423448431991E-08
     -7.41410260576400E-14  -4.00000000000000E+01  -4.00000000000000E+01   0.00000000000000E+00   1.19379336766006E-07
     -5.94911875168343E-15  -2.01347016094976E-07  -8.19676852780884E-08  -1.58990811909036E-13
      3.72778372322066E-09
      8.00000000000000E-01   8.00000000000000E-01   0.00000000000000E+00  -6.39628975932618E-13   1.72082199185711E-08
     -2.05579684753720E-12   1.72055244927477E-08   2.33118779542289E-13   0.00000000000000E+00   0.00000000000000E+00
      0.00000000000000E+00  -1.14603588600942E-12  -1.97171274565830E-16   6.19761760690670E-08   6.19750298360097E-08
     -7.41364843120241E-14  -4.00000000000000E+01  -4.00000000000000E+01   0.00000000000000E+00   1.19913670915516E-07
     -5.94891219894725E-15  -1.99094219295361E-07  -7.91805543287571E-08  -1.58982295230265E-13
      3.83455279837545E-09
      8.00000000000000E-01   8.00000000000000E-01   0.00000000000000E+00  -5.05487636337490E-13   1.55939958261142E-08
     -1.91790982678496E-12   1.55915724286511E-08   2.33099347497336E-13   0.00000000000000E+00   0.00000000000000E+00
      0.00000000000000E+00  -1.30059722654052E-12  -1.97170853935351E-16   5.94686908723208E-08   5.94673900779234E-08
     -7.41298883470617E-14  -4.00000000000000E+01  -4.00000000000000E+01   0.00000000000000E+00   1.20509278282330E-07
     -5.94860087658456E-15  -1.95568234840303E-07  -7.50589625065747E-08  -1.58969459150276E-13
      3.99470641110765E-09
      8.00000000000000E-01   8.00000000000000E-01   0.00000000000000E+00  -3.84738625320520E-13   1.37121062606308E-08
     -1.72746299195881E-12   1.37099940590135E-08   2.33070667076227E-13   0.00000000000000E+00   0.00000000000000E+00
      0.00000000000000E+00  -1.42089663273073E-12  -1.97170355882418E-16   5.52887420474512E-08   5.52873209536481E-08
     -7.41205404225993E-14  -4.00000000000000E+01  -4.00000000000000E+01   0.00000000000000E+00   1.20852286803054E-07
     -5.94813196610600E-15  -1.89849595867584E-07  -6.89973150126616E-08  -1.58950126653628E-13
      4.23493683020595E-09
      8.00000000000000E-01   8.00000000000000E-01   0.00000000000000E+00  -2.94091378573555E-13   1.15593187106712E-08
     -1.47539178947260E-12   1.15575492275031E-08   2.33029043476510E-13   0.00000000000000E+00   0.00000000000000E+00
      0.00000000000000E+00  -1.46845030720866E-12  -1.97169853780276E-16   4.86357143069645E-08   4.86342456594875E-08
     -7.41078449271510E-14  -4.00000000000000E+01  -4.00000000000000E+01   0.00000000000000E+00   1.19802435821277E-07
     -5.94743026110600E-15  -1.79994224760838E-07  -6.01917948869906E-08  -1.58921198549358E-13
      4.41510964452967E-09
      8.00000000000000E-01   8.00000000000000E-01   0.00000000000000E+00  -2.58407269365790E-13   1.02355796753043E-08
     -1.31021238027477E-12   1.02340110556546E-08   2.32999200397729E-13   0.00000000000000E+00   0.00000000000000E+00
      0.00000000000000E+00  -1.44242634416467E-12  -1.97169627712382E-16   4.36236784915202E-08   4.36222358680065E-08
     -7.40993935742750E-14  -4.00000000000000E+01  -4.00000000000000E+01   0.00000000000000E+00   1.17535946623798E-07
     -5.94691132785174E-15  -1.71392187600548E-07  -5.38562469236611E-08  -1.58899806823454E-13
      4.68536886601525E-09
      8.00000000000000E-01   8.00000000000000E-01   0.00000000000000E+00  -2.21337476915256E-13   8.51072062858587E-09
     -1.09571256578270E-12   8.50940357854317E-09   2.32957224982129E-13   0.00000000000000E+00   0.00000000000000E+00