DF-ISE text

Info {
  version   = 1.0
  type      = xyplot
  datasets  = [
    "time"
    "Ntop OuterVoltage" "Ntop InnerVoltage" "Ntop QuasiFermiPotential" "Ntop DisplacementCurrent" "Ntop eCurrent"
    "Ntop hCurrent" "Ntop TotalCurrent" "Ntop Charge" "Ptop OuterVoltage" "Ptop InnerVoltage"
    "Ptop QuasiFermiPotential" "Ptop DisplacementCurrent" "Ptop eCurrent" "Ptop hCurrent" "Ptop TotalCurrent"
    "Ptop Charge" "Pbot OuterVoltage" "Pbot InnerVoltage" "Pbot QuasiFermiPotential" "Pbot DisplacementCurrent"
    "Pbot eCurrent" "Pbot hCurrent" "Pbot TotalCurrent" "Pbot Charge" ]
  functions = [
    Time
    OuterVoltage InnerVoltage QuasiFermiPotential DisplacementCurrent eCurrent
    hCurrent TotalCurrent Charge OuterVoltage InnerVoltage
    QuasiFermiPotential DisplacementCurrent eCurrent hCurrent TotalCurrent
    Charge OuterVoltage InnerVoltage QuasiFermiPotential DisplacementCurrent
    eCurrent hCurrent TotalCurrent Charge ]
}

Data {
      5.00000000000000E-13
      8.00000000000000E-01   8.00000000000000E-01   0.00000000000000E+00   1.00341844194491E-14   7.45689975043125E-12
     -6.86996789901894E-12   5.96966035831768E-13   2.34224766837354E-13   0.00000000000000E+00   0.00000000000000E+00
      0.00000000000000E+00  -1.21443507604033E-13  -1.97157898428231E-16   1.75443966751369E-09   1.75431802684818E-09
     -6.21801123149368E-14  -4.50000000000000E+01  -4.50000000000000E+01   0.00000000000000E+00  -4.10006455941563E-13
      1.37001719397915E-11  -1.76820515836787E-09  -1.75491499288402E-09  -1.72044654522417E-13
      1.25000000000000E-12
      8.00000000000000E-01   8.00000000000000E-01   0.00000000000000E+00   1.05545882316206E-13   3.36188475405409E-11
     -3.17001464611725E-11   2.02424696168465E-12   2.34224766837734E-13   0.00000000000000E+00   0.00000000000000E+00
      0.00000000000000E+00  -3.52353149336329E-14  -1.97157898425852E-16   1.75554093275015E-09   1.75550550027732E-09
     -6.21801123143348E-14  -4.50000000000000E+01  -4.50000000000000E+01   0.00000000000000E+00  -2.34086174861795E-12
      6.32254830981547E-11  -1.81841436858855E-09  -1.75752974723901E-09  -1.72044654523399E-13
      2.37500000000000E-12
      8.00000000000000E-01   8.00000000000000E-01   0.00000000000000E+00   7.98363300959317E-13   2.80290133668857E-10
     -2.62290188645912E-10   1.87983083239035E-11   2.34224766843275E-13   0.00000000000000E+00   0.00000000000000E+00
      0.00000000000000E+00   1.05890944890137E-12  -1.97157898398913E-16   1.76879756573051E-09   1.76985627802151E-09
     -6.21801123053072E-14  -4.50000000000000E+01  -4.50000000000000E+01   0.00000000000000E+00  -2.53721064660788E-11
      5.23011245748344E-10  -2.28629372562768E-09  -1.78865458634542E-09  -1.72044654537968E-13
      4.06250000000000E-12
      8.00000000000000E-01   8.00000000000000E-01   0.00000000000000E+00   1.19676799542518E-11   4.35379999717217E-09
     -3.97900297744904E-09   3.86764699677381E-10   2.34224767006052E-13   0.00000000000000E+00   0.00000000000000E+00
      0.00000000000000E+00   1.53119238320023E-11  -1.97157897780078E-16   2.07561794419774E-09   2.09092967087184E-09
     -6.21801120320895E-14  -4.50000000000000E+01  -4.50000000000000E+01   0.00000000000000E+00  -5.35291173291441E-10
      7.93006574579570E-09  -9.87246894305347E-09  -2.47769437054922E-09  -1.72044654973964E-13
      6.59375000000000E-12
      8.00000000000000E-01   8.00000000000000E-01   0.00000000000000E+00   2.38373828405665E-10   9.06609220315917E-08
     -7.96294094758338E-08   1.12698863841636E-08   2.34224773942492E-13   0.00000000000000E+00   0.00000000000000E+00
      0.00000000000000E+00   3.08909479134041E-10  -1.97157878887120E-16   1.14358015425266E-08   1.17447108245027E-08
     -6.21801000736503E-14  -4.50000000000000E+01  -4.50000000000000E+01   0.00000000000000E+00  -1.57329618420033E-08
      1.58559659840646E-07  -1.65841295207309E-07  -2.30145972086662E-08  -1.72044673868842E-13
      1.03906250000000E-11
      8.00000000000000E-01   8.00000000000000E-01   0.00000000000000E+00   1.99198470763227E-09   8.12863019461023E-07
     -6.62774127875405E-07   1.52080876293250E-07   2.34224921010102E-13   0.00000000000000E+00   0.00000000000000E+00
      0.00000000000000E+00   2.55821213130507E-09  -1.97157629812328E-16   1.34635891803920E-07   1.37194103738068E-07
     -6.21798429193832E-14  -4.50000000000000E+01  -4.50000000000000E+01   0.00000000000000E+00  -2.12600814428873E-07
      1.31746977731069E-06  -1.39414394291313E-06  -2.89274980031318E-07  -1.72045078090719E-13
      1.60859375000000E-11
      8.00000000000000E-01   8.00000000000000E-01   0.00000000000000E+00   1.16290371073814E-09   7.27052615666164E-07
     -3.54664802406533E-07   3.73550716970370E-07   2.34225693183716E-13   0.00000000000000E+00   0.00000000000000E+00
      0.00000000000000E+00   1.20066374720423E-09  -1.97157252355918E-16   3.20201938768717E-07   3.21402602318764E-07
     -6.21785209420575E-14  -4.50000000000000E+01  -4.50000000000000E+01   0.00000000000000E+00  -5.10099939274660E-07
      6.94216007688145E-07  -8.79069387702619E-07  -6.94953319289134E-07  -1.72047172241660E-13
      2.46289062500000E-11
      8.00000000000000E-01   8.00000000000000E-01   0.00000000000000E+00   1.54937232798206E-10   4.97468963690214E-07
     -8.85898605835088E-09   4.88764914864661E-07   2.34227621314534E-13   0.00000000000000E+00   0.00000000000000E+00
      0.00000000000000E+00  -1.90380517053914E-10  -1.97157142441138E-16   3.72209234981353E-07   3.72018854267142E-07
     -6.21755163009511E-14  -4.50000000000000E+01  -4.50000000000000E+01   0.00000000000000E+00  -6.23649913610760E-07
      1.28636943698134E-09  -2.38420224958019E-07  -8.60783769131798E-07  -1.72052105013583E-13
      3.74433593750000E-11
      8.00000000000000E-01   8.00000000000000E-01   0.00000000000000E+00   1.12674434937896E-10   5.36096214499103E-07
     -7.46860358336683E-09   5.28740285350674E-07   2.34231038512968E-13   0.00000000000000E+00   0.00000000000000E+00
      0.00000000000000E+00  -1.43671468293930E-10  -1.97157216317078E-16   3.32504992596493E-07   3.32361320931042E-07
     -6.21710353501010E-14  -4.50000000000000E+01  -4.50000000000000E+01   0.00000000000000E+00  -6.08964715861399E-07
     -6.25620279737765E-15  -2.52136884164114E-07  -8.61101606281716E-07  -1.72060003162868E-13
      5.66650390625000E-11
      8.00000000000000E-01   8.00000000000000E-01   0.00000000000000E+00   7.70011633086149E-11   5.76755532016678E-07
     -6.46756113189329E-09   5.70364972048093E-07   2.34236632154008E-13   0.00000000000000E+00   0.00000000000000E+00
      0.00000000000000E+00  -1.03497917195574E-10  -1.97157298548325E-16   2.87716133563807E-07   2.87612635449454E-07
     -6.21651328135493E-14  -4.50000000000000E+01  -4.50000000000000E+01   0.00000000000000E+00  -5.87393341934329E-07
     -6.25655754558488E-15  -2.70584259306658E-07  -8.57977607497545E-07  -1.72071499340459E-13
      8.54975585937500E-11
      8.00000000000000E-01   8.00000000000000E-01   0.00000000000000E+00   4.60706896556570E-11   6.14851553229532E-07
     -5.21032323357514E-09   6.09687300685612E-07   2.34245626936100E-13   0.00000000000000E+00   0.00000000000000E+00
      0.00000000000000E+00  -6.81309808637416E-11  -1.97157381837834E-16   2.41267657518210E-07   2.41199526340189E-07
     -6.21576042759930E-14  -4.50000000000000E+01  -4.50000000000000E+01   0.00000000000000E+00  -5.59177566922485E-07
     -6.25693186641377E-15  -2.91709253846387E-07  -8.50886827025803E-07  -1.72088022660108E-13
      1.28746337890625E-10
      8.00000000000000E-01   8.00000000000000E-01   0.00000000000000E+00   2.12683087268429E-11   6.44113270768387E-07
     -3.76571586453871E-09   6.40368823212575E-07   2.34259720912629E-13   0.00000000000000E+00   0.00000000000000E+00
      0.00000000000000E+00  -3.95449809768054E-11  -1.97157455929206E-16   1.97731483739877E-07   1.97691938561743E-07
     -6.21482696992627E-14  -4.50000000000000E+01  -4.50000000000000E+01   0.00000000000000E+00  -5.24976511423590E-07
     -6.25746351514765E-15  -3.13084244093267E-07  -8.38060761774320E-07  -1.72111451213366E-13
      1.61182922363281E-10
      8.00000000000000E-01   8.00000000000000E-01   0.00000000000000E+00   1.10814416596278E-11   6.53578383264855E-07
     -2.95499817765223E-09   6.50634466528862E-07   2.34270429172470E-13   0.00000000000000E+00   0.00000000000000E+00
      0.00000000000000E+00  -2.79721926560720E-11  -1.97157487368637E-16   1.77072371599766E-07   1.77044399209952E-07
     -6.21422900085833E-14  -4.50000000000000E+01  -4.50000000000000E+01   0.00000000000000E+00  -5.04269163592463E-07
     -6.25784267173290E-15  -3.23409695888509E-07  -8.27678865738815E-07  -1.72128139163887E-13
      2.09837799072266E-10
      8.00000000000000E-01   8.00000000000000E-01   0.00000000000000E+00   2.49124690916074E-12   6.57772507555558E-07
     -2.05499055584283E-09   6.55720008246624E-07   2.34286377558531E-13   0.00000000000000E+00   0.00000000000000E+00
      0.00000000000000E+00  -1.85489051876983E-11  -1.97157513351576E-16   1.55809157021402E-07   1.55790607919057E-07
     -6.21343421079222E-14  -4.50000000000000E+01  -4.50000000000000E+01   0.00000000000000E+00  -4.78437621974443E-07
     -6.25838598000527E-15  -3.33072987932852E-07  -8.11510616165681E-07  -1.72152035450611E-13
      2.46328956604004E-10
      8.00000000000000E-01   8.00000000000000E-01   0.00000000000000E+00  -7.88732390698148E-13   6.56530400458209E-07
     -1.56867427529438E-09   6.54960937450524E-07   2.34298160901988E-13   0.00000000000000E+00   0.00000000000000E+00
      0.00000000000000E+00  -1.51644010585315E-11  -1.97157522667786E-16   1.44146493946999E-07   1.44131329348783E-07
     -6.21289709439041E-14  -4.50000000000000E+01  -4.50000000000000E+01   0.00000000000000E+00  -4.61920286081733E-07
     -6.25877618974177E-15  -3.37171974458797E-07  -7.99092266799307E-07  -1.72169189958084E-13
      3.01065692901611E-10
      8.00000000000000E-01   8.00000000000000E-01   0.00000000000000E+00  -3.12279667065278E-12   6.51730649441361E-07
     -1.04826799317311E-09   6.50679258651517E-07   2.34315495209713E-13   0.00000000000000E+00   0.00000000000000E+00
      0.00000000000000E+00  -1.29873397910873E-11  -1.97157528738458E-16   1.29552992799770E-07   1.29540005262821E-07
     -6.21216287740554E-14  -4.50000000000000E+01  -4.50000000000000E+01   0.00000000000000E+00  -4.39946225726591E-07
     -6.25933764282787E-15  -3.40273031928409E-07  -7.80219263914337E-07  -1.72193866435657E-13
      3.42118245124817E-10
      8.00000000000000E-01   8.00000000000000E-01   0.00000000000000E+00  -3.69533512913391E-12   6.47233324115004E-07
     -7.78328922723895E-10   6.46451299857151E-07   2.34328238994646E-13   0.00000000000000E+00   0.00000000000000E+00
      0.00000000000000E+00  -1.26372195516692E-11  -1.97157530451587E-16   1.19528675522542E-07   1.19516038105833E-07
     -6.21166212941639E-14  -4.50000000000000E+01  -4.50000000000000E+01   0.00000000000000E+00  -4.24939729762027E-07
     -6.25974159128191E-15  -3.41027601941217E-07  -7.65967337962986E-07  -1.72211617700484E-13
      4.03697073459625E-10
      8.00000000000000E-01   8.00000000000000E-01   0.00000000000000E+00  -3.67584186766239E-12   6.40601073258259E-07
     -5.00542706159023E-10   6.40096854710233E-07   2.34347006870950E-13   0.00000000000000E+00   0.00000000000000E+00
      0.00000000000000E+00  -1.30160682963513E-11  -1.97157532993362E-16   1.04472969856149E-07   1.04459953590695E-07
     -6.21098753867805E-14  -4.50000000000000E+01  -4.50000000000000E+01   0.00000000000000E+00  -4.03824670811749E-07
     -6.26032221417663E-15  -3.40732131228857E-07  -7.44556808300928E-07  -1.72237131484169E-13
      4.49881194710732E-10
      8.00000000000000E-01   8.00000000000000E-01   0.00000000000000E+00  -3.30677376025764E-12   6.36179357939865E-07
     -3.62594515832483E-10   6.35813456650273E-07   2.34360862757494E-13   0.00000000000000E+00   0.00000000000000E+00
      0.00000000000000E+00  -1.36394071230534E-11  -1.97157536701163E-16   9.27201768620317E-08   9.27065372577511E-08
     -6.21054309457119E-14  -4.50000000000000E+01  -4.50000000000000E+01   0.00000000000000E+00  -3.88707816384817E-07
     -6.26073867963445E-15  -3.39812171262469E-07  -7.28519993908024E-07  -1.72255431811781E-13
      5.19157376587391E-10
      8.00000000000000E-01   8.00000000000000E-01   0.00000000000000E+00  -2.56601998431189E-12   6.30820138003915E-07
     -2.26264654717725E-10   6.30591307329213E-07   2.34381407424149E-13   0.00000000000000E+00   0.00000000000000E+00
      0.00000000000000E+00  -1.47104924801797E-11  -1.97157547513488E-16   7.39743187809273E-08   7.39596080912895E-08
     -6.20998113548405E-14  -4.50000000000000E+01  -4.50000000000000E+01   0.00000000000000E+00  -3.66706470637561E-07
     -6.26133407835973E-15  -3.37844438521608E-07  -7.04550915420503E-07  -1.72281596069309E-13
      5.71114512994885E-10
      8.00000000000000E-01   8.00000000000000E-01   0.00000000000000E+00  -1.98014658362163E-12   6.27839422200893E-07
     -1.61509420344148E-10   6.27675932633965E-07   2.34396697480725E-13   0.00000000000000E+00   0.00000000000000E+00
      0.00000000000000E+00  -1.54905296661142E-11  -1.97157560627668E-16   5.89981731246439E-08   5.89826823978203E-08
     -6.20964683842155E-14  -4.50000000000000E+01  -4.50000000000000E+01   0.00000000000000E+00  -3.50558915477947E-07
     -6.26175806470943E-15  -3.36099693292081E-07  -6.86658615031786E-07  -1.72300229096509E-13
      6.49050217606127E-10
      8.00000000000000E-01   8.00000000000000E-01   0.00000000000000E+00  -1.17455981633615E-12   6.24906827695087E-07
     -9.99563024865948E-11   6.24805696832784E-07   2.34419571826057E-13   0.00000000000000E+00   0.00000000000000E+00
      0.00000000000000E+00  -1.65241421493347E-11  -1.97157589264123E-16   3.51804996863538E-08   3.51639753470469E-08
     -6.20929529366863E-14  -4.50000000000000E+01  -4.50000000000000E+01   0.00000000000000E+00  -3.26690141508773E-07
     -6.26235849659831E-15  -3.33279524408700E-07  -6.59969672179832E-07  -1.72326618889372E-13
      7.07501996064559E-10
      8.00000000000000E-01   8.00000000000000E-01   0.00000000000000E+00  -6.58913262141733E-13   6.23767642730081E-07
     -7.18830014117347E-11   6.23695100815407E-07   2.34436751572609E-13   0.00000000000000E+00   0.00000000000000E+00
      0.00000000000000E+00  -1.71595847207562E-11  -1.97157617906100E-16   1.63944365238255E-08   1.63772767419471E-08
     -6.20915546820984E-14  -4.50000000000000E+01  -4.50000000000000E+01   0.00000000000000E+00  -3.08991270852387E-07
     -6.26278114780065E-15  -3.31081100442185E-07  -6.40072377557354E-07  -1.72345196890511E-13
      7.95179663752206E-10
      8.00000000000000E-01   8.00000000000000E-01   0.00000000000000E+00  -5.23275957253123E-14   6.23399150570432E-07
     -4.59973050414217E-11   6.23353100937795E-07   2.34462682541434E-13   0.00000000000000E+00   0.00000000000000E+00
      0.00000000000000E+00  -1.78814063259130E-11  -1.97157671315171E-16  -1.29218442388959E-08  -1.29397258423795E-08
     -6.20915484386320E-14  -4.50000000000000E+01  -4.50000000000000E+01   0.00000000000000E+00  -2.82679520228982E-07
     -6.26337115724709E-15  -3.27733848603067E-07  -6.10413375095420E-07  -1.72371134102805E-13
      9.26696165283676E-10
      8.00000000000000E-01   8.00000000000000E-01   0.00000000000000E+00   4.63120035960529E-13   6.24864239774808E-07
     -2.65495950981208E-11   6.24838153299746E-07   2.34502164633792E-13   0.00000000000000E+00   0.00000000000000E+00
      0.00000000000000E+00  -1.84212944402567E-11  -1.97157762274172E-16  -5.84952495200802E-08  -5.85136710116782E-08
     -6.20964234486794E-14  -4.50000000000000E+01  -4.50000000000000E+01   0.00000000000000E+00  -2.43637225247457E-07
     -6.26415826674935E-15  -3.22687250776454E-07  -5.66324482288069E-07  -1.72405741185112E-13
      1.02533354143228E-09
      8.00000000000000E-01   8.00000000000000E-01   0.00000000000000E+00   5.06356417063721E-13   6.26682631791035E-07
     -1.95163415424017E-11   6.26663621805910E-07   2.34532346763699E-13   0.00000000000000E+00   0.00000000000000E+00
      0.00000000000000E+00  -1.83585175511663E-11  -1.97157812464879E-16  -9.30872731936523E-08  -9.31056319083613E-08
     -6.21040046348327E-14  -4.50000000000000E+01  -4.50000000000000E+01   0.00000000000000E+00  -2.14645990737713E-07
     -6.26467223525574E-15  -3.18911992895162E-07  -5.33557989897547E-07  -1.72428342128867E-13
      1.17328960565518E-09
      8.00000000000000E-01   8.00000000000000E-01   0.00000000000000E+00  -1.73717965743414E-13   6.28319518642288E-07
     -1.37884627405361E-11   6.28305556461582E-07   2.34578531913267E-13   0.00000000000000E+00   0.00000000000000E+00
      0.00000000000000E+00  -1.72549850851249E-11  -1.97157701526733E-16  -1.43406876891283E-07  -1.43424132073526E-07
     -6.21216196973850E-14  -4.50000000000000E+01  -4.50000000000000E+01   0.00000000000000E+00  -1.71596684549783E-07
     -6.26532187515864E-15  -3.13284733572950E-07  -4.84881424388055E-07  -1.72456912215882E-13
      1.28425665382236E-09
      8.00000000000000E-01   8.00000000000000E-01   0.00000000000000E+00  -1.47019090714757E-12   6.26665349849471E-07
     -1.13719625461279E-11   6.26652507696018E-07   2.34613672952296E-13   0.00000000000000E+00   0.00000000000000E+00
      0.00000000000000E+00  -1.53283982483245E-11  -1.97157226055824E-16  -1.77863395987987E-07  -1.77878724583393E-07
     -6.21394917058163E-14  -4.50000000000000E+01  -4.50000000000000E+01   0.00000000000000E+00  -1.39679408205516E-07
     -6.26571451553058E-15  -3.09094368641396E-07  -4.48773783112627E-07  -1.72474181246479E-13
      1.36748193994775E-09
      8.00000000000000E-01   8.00000000000000E-01   0.00000000000000E+00  -3.03597224633115E-12   6.22318755193575E-07
     -1.00692050185192E-11   6.22305650016310E-07   2.34640056999741E-13   0.00000000000000E+00   0.00000000000000E+00
      0.00000000000000E+00  -1.30733458687681E-11  -1.97156392338728E-16  -2.00332443306292E-07  -2.00345516849317E-07
     -6.21552375122829E-14  -4.50000000000000E+01  -4.50000000000000E+01   0.00000000000000E+00  -1.15991051912441E-07
     -6.26595638886430E-15  -3.05969074988594E-07  -4.21960133166991E-07  -1.72484819487457E-13
      1.49231986913582E-09
      8.00000000000000E-01   8.00000000000000E-01   0.00000000000000E+00  -6.38182818950771E-12   6.07995917560656E-07
     -8.58118219003822E-12   6.07980954550276E-07   2.34678960655701E-13   0.00000000000000E+00   0.00000000000000E+00
      0.00000000000000E+00  -8.22754158759323E-12  -1.97153629356853E-16  -2.25643306542556E-07  -2.25651534281298E-07
     -6.21818483390855E-14  -4.50000000000000E+01  -4.50000000000000E+01   0.00000000000000E+00  -8.10195903742567E-08
     -6.26623589092771E-15  -3.01309823628485E-07  -3.82329420268977E-07  -1.72497112316616E-13
      1.58594831602688E-09
      8.00000000000000E-01   8.00000000000000E-01   0.00000000000000E+00  -9.59643484711879E-12   5.89276787861148E-07
     -7.70902809693134E-12   5.89259482398204E-07   2.34706937706595E-13   0.00000000000000E+00   0.00000000000000E+00
      0.00000000000000E+00  -3.51970795064141E-12  -1.97149606909610E-16  -2.35999886787435E-07  -2.36003406692535E-07
     -6.22034409338754E-14  -4.50000000000000E+01  -4.50000000000000E+01   0.00000000000000E+00  -5.54175393007920E-08
     -6.26638107479851E-15  -2.97838530138495E-07  -3.53256075705668E-07  -1.72503496772720E-13
      1.72639098636346E-09
      8.00000000000000E-01   8.00000000000000E-01   0.00000000000000E+00  -1.49370832945452E-11   5.45709467650060E-07
     -6.64611727616017E-12   5.45687884449490E-07   2.34745185451011E-13   0.00000000000000E+00   0.00000000000000E+00
      0.00000000000000E+00   4.54290367937821E-12  -1.97138134365510E-16  -2.34400638850094E-07  -2.34396096143553E-07
     -6.22365039177526E-14  -4.50000000000000E+01  -4.50000000000000E+01   0.00000000000000E+00  -1.86205606929715E-08
     -6.26649903703898E-15  -2.92671221346467E-07  -3.11291788305937E-07  -1.72508681533258E-13
      1.83172298911590E-09
      8.00000000000000E-01   8.00000000000000E-01   0.00000000000000E+00  -1.87096806187414E-11   5.00643303918733E-07
     -5.98921954770619E-12   5.00618605018566E-07   2.34769631617749E-13   0.00000000000000E+00   0.00000000000000E+00
      0.00000000000000E+00   1.05582621233026E-11  -1.97123255409092E-16  -2.18992410158490E-07  -2.18981852093490E-07
     -6.22603566781299E-14  -4.50000000000000E+01  -4.50000000000000E+01   0.00000000000000E+00   7.19233323566925E-09
     -6.26651262647964E-15  -2.88829079894230E-07  -2.81636752925074E-07  -1.72509274939620E-13
      1.98972099324456E-09
      8.00000000000000E-01   8.00000000000000E-01   0.00000000000000E+00  -2.25680017068151E-11   4.17219671330008E-07
     -5.16264140896618E-12   4.17191940686892E-07   2.34796952100006E-13   0.00000000000000E+00   0.00000000000000E+00
      0.00000000000000E+00   1.76016327756856E-11  -1.97086083931660E-16  -1.75947376033820E-07  -1.75929774598131E-07
     -6.22915898951013E-14  -4.50000000000000E+01  -4.50000000000000E+01   0.00000000000000E+00   4.18638385475238E-08
     -6.26642386919308E-15  -2.83125998369862E-07  -2.41262166088762E-07  -1.72505362204905E-13
      2.10821949634105E-09
      8.00000000000000E-01   8.00000000000000E-01   0.00000000000000E+00  -2.34102848832126E-11   3.47629500817845E-07
     -4.64111202109227E-12   3.47601449420940E-07   2.34808926578354E-13   0.00000000000000E+00   0.00000000000000E+00
      0.00000000000000E+00   2.03765485084191E-11  -1.97043564007229E-16  -1.32747572371565E-07  -1.32727196020100E-07
     -6.23098566028501E-14  -4.50000000000000E+01  -4.50000000000000E+01   0.00000000000000E+00   6.40271559973425E-08
     -6.26628099739363E-15  -2.78901403131901E-07  -2.14874253400839E-07  -1.72499069975503E-13
      2.28596725098579E-09
      8.00000000000000E-01   8.00000000000000E-01   0.00000000000000E+00  -2.12786104883975E-11   2.45808435351967E-07
     -3.97869409560779E-12   2.45783178047383E-07   2.34812544453340E-13   0.00000000000000E+00   0.00000000000000E+00
      0.00000000000000E+00   2.00512803598706E-11  -1.96952693613808E-16  -6.35830781672320E-08  -6.35630270838249E-08
     -6.23272651917373E-14  -4.50000000000000E+01  -4.50000000000000E+01   0.00000000000000E+00   9.04424147845077E-08
     -6.26596776911284E-15  -2.72662559482099E-07  -1.82220150963559E-07  -1.72485279261602E-13
      2.41927806696935E-09
      8.00000000000000E-01   8.00000000000000E-01   0.00000000000000E+00  -1.77524524308294E-11   1.79377884509856E-07
     -3.55829600739651E-12   1.79356573761418E-07   2.34804807572413E-13   0.00000000000000E+00   0.00000000000000E+00
      0.00000000000000E+00   1.70475085838376E-11  -1.96863930990633E-16  -1.63703903808836E-08  -1.63533430691637E-08
     -6.23325835376343E-14  -4.50000000000000E+01  -4.50000000000000E+01   0.00000000000000E+00   1.05065544471437E-07
     -6.26567119314892E-15  -2.68068768898020E-07  -1.63003230692254E-07  -1.72472224034778E-13
      2.61924429094468E-09
      8.00000000000000E-01   8.00000000000000E-01   0.00000000000000E+00  -1.16263266613324E-11   1.04510645798501E-07
     -3.02158902052445E-12   1.04495997882819E-07   2.34780121775964E-13   0.00000000000000E+00   0.00000000000000E+00
      0.00000000000000E+00   1.08188754265401E-11  -1.96706796758850E-16   3.66256241386801E-08   3.66364428173999E-08
     -6.23304789019111E-14  -4.50000000000000E+01  -4.50000000000000E+01   0.00000000000000E+00   1.20188955706900E-07
     -6.26515814406913E-15  -2.61321390141961E-07  -1.41132440700219E-07  -1.72449642874053E-13
      2.76921895892618E-09
      8.00000000000000E-01   8.00000000000000E-01   0.00000000000000E+00  -7.57410257305458E-12   6.78373815726564E-08
     -2.67874356388463E-12   6.78271287265195E-08   2.34754270208013E-13   0.00000000000000E+00   0.00000000000000E+00
      0.00000000000000E+00   6.37999841120477E-12  -1.96579975616030E-16   6.09665259646215E-08   6.09729057664528E-08
     -6.23232217084799E-14  -4.50000000000000E+01  -4.50000000000000E+01   0.00000000000000E+00   1.27559316746834E-07
     -6.26473562199509E-15  -2.56359344975070E-07  -1.28800034492972E-07  -1.72431048499533E-13
      2.88169995991231E-09
      8.00000000000000E-01   8.00000000000000E-01   0.00000000000000E+00  -5.25616413998256E-12   4.93943697742234E-08
     -2.44883952822756E-12   4.93866647705552E-08   2.34732328761097E-13   0.00000000000000E+00   0.00000000000000E+00
      0.00000000000000E+00   3.72146790740782E-12  -1.96485993962446E-16   7.16586724009151E-08   7.16623936723365E-08
     -6.23158613363622E-14  -4.50000000000000E+01  -4.50000000000000E+01   0.00000000000000E+00   1.31621214936016E-07
     -6.26440426553846E-15  -2.52670267114503E-07  -1.21049058442892E-07  -1.72416467424734E-13
      2.92388033528210E-09
      8.00000000000000E-01   8.00000000000000E-01   0.00000000000000E+00  -4.54282613933120E-12   4.40876305669776E-08
     -2.36795646415056E-12   4.40807197843741E-08   2.34723720619783E-13   0.00000000000000E+00   0.00000000000000E+00
      0.00000000000000E+00   2.90961337884311E-12  -1.96451800780517E-16   7.42944787036806E-08   7.42973881206076E-08
     -6.23128324028252E-14  -4.50000000000000E+01  -4.50000000000000E+01   0.00000000000000E+00   1.32910149047202E-07
     -6.26427747119544E-15  -2.51288250687906E-07  -1.18378107904981E-07  -1.72410888216957E-13
      2.98715089833680E-09
      8.00000000000000E-01   8.00000000000000E-01   0.00000000000000E+00  -3.63117770867765E-12   3.74431544878415E-08
     -2.25162338276336E-12   3.74372716867500E-08   2.34710540783842E-13   0.00000000000000E+00   0.00000000000000E+00
      0.00000000000000E+00   1.83748228518955E-12  -1.96402121326827E-16   7.71105035146252E-08   7.71123408005083E-08
     -6.23081177753770E-14  -4.50000000000000E+01  -4.50000000000000E+01   0.00000000000000E+00   1.34660171607606E-07
     -6.26408508268369E-15  -2.49209777830779E-07  -1.14549612487258E-07  -1.72402423008465E-13
      3.08205674291884E-09
      8.00000000000000E-01   8.00000000000000E-01   0.00000000000000E+00  -2.57178812925359E-12   2.98809884850053E-08
     -2.08763071838338E-12   2.98763290661576E-08   2.34690345930236E-13   0.00000000000000E+00   0.00000000000000E+00
      0.00000000000000E+00   5.92065584867301E-13  -1.96331950556456E-16   7.92398929213497E-08   7.92404847906026E-08
     -6.23008128887203E-14  -4.50000000000000E+01  -4.50000000000000E+01   0.00000000000000E+00   1.36945650802332E-07
     -6.26379211899781E-15  -2.46062458395300E-07  -1.09116813856760E-07  -1.72389533041517E-13
      3.22441550979191E-09
      8.00000000000000E-01   8.00000000000000E-01   0.00000000000000E+00  -1.52781883398615E-12   2.23996024733609E-08
     -1.86320899381341E-12   2.23962114455331E-08   2.34659554631980E-13   0.00000000000000E+00   0.00000000000000E+00
      0.00000000000000E+00  -6.49320087194256E-13  -1.96237983873682E-16   7.90456861139597E-08   7.90450365976345E-08
     -6.22897214385957E-14  -4.50000000000000E+01  -4.50000000000000E+01   0.00000000000000E+00   1.39760598090070E-07
     -6.26334435002086E-15  -2.41201839869894E-07  -1.01441248043168E-07  -1.72369833193386E-13
      3.43795366010150E-09
      8.00000000000000E-01   8.00000000000000E-01   0.00000000000000E+00  -7.43493916682460E-13   1.62162098219516E-08
     -1.56944631846991E-12   1.62138968817164E-08   2.34613278451187E-13   0.00000000000000E+00   0.00000000000000E+00
      0.00000000000000E+00  -1.57748830186857E-12  -1.96123606669297E-16   7.43365939745791E-08   7.43350162901536E-08
     -6.22736213964662E-14  -4.50000000000000E+01  -4.50000000000000E+01   0.00000000000000E+00   1.42736794785905E-07
     -6.26265839660284E-15  -2.33285701695117E-07  -9.05489131718700E-08  -1.72339657054723E-13
      3.59810727283370E-09
      8.00000000000000E-01   8.00000000000000E-01   0.00000000000000E+00  -4.94454299965712E-13   1.36286353982288E-08
     -1.37896336620682E-12   1.36267619805626E-08   2.34579072924226E-13   0.00000000000000E+00   0.00000000000000E+00
      0.00000000000000E+00  -1.84741025262726E-12  -1.96057326872503E-16   6.90624198810757E-08   6.90605722747658E-08
     -6.22623737561351E-14  -4.50000000000000E+01  -4.50000000000000E+01   0.00000000000000E+00   1.43868374285751E-07
     -6.26213648068534E-15  -2.26555702278943E-07  -8.26873342553284E-08  -1.72316699168092E-13
      3.83833769193199E-09
      8.00000000000000E-01   8.00000000000000E-01   0.00000000000000E+00  -3.33071801039167E-13   1.10263506116168E-08
     -1.13423332180122E-12   1.10248833064940E-08   2.34529386135224E-13   0.00000000000000E+00   0.00000000000000E+00
      0.00000000000000E+00  -1.95870019228852E-12  -1.95983151910481E-16   6.02851018315850E-08   6.02831429354096E-08
     -6.22472045118956E-14  -4.50000000000000E+01  -4.50000000000000E+01   0.00000000000000E+00   1.43228517670653E-07
     -6.26135170883574E-15  -2.14536537651206E-07  -7.13080262419038E-08  -1.72282181623328E-13
      4.01851050625572E-09
      8.00000000000000E-01   8.00000000000000E-01   0.00000000000000E+00  -2.77867481608889E-13   9.55472029935850E-09
     -9.78984984757529E-13   9.55346344689214E-09   2.34493835369841E-13   0.00000000000000E+00   0.00000000000000E+00
      0.00000000000000E+00  -1.92249698018948E-12  -1.95943138888376E-16   5.36022353149769E-08   5.36003126220536E-08
     -6.22372312275278E-14  -4.50000000000000E+01  -4.50000000000000E+01   0.00000000000000E+00   1.40511336635643E-07
     -6.26077014882207E-15  -2.03665106443818E-07  -6.31537760689455E-08  -1.72256604142313E-13
      4.15364011699851E-09
      8.00000000000000E-01   8.00000000000000E-01   0.00000000000000E+00  -2.55847405424307E-13   8.58653470208378E-09
     -8.76397071038500E-13   8.58540245760732E-09   2.34468378898739E-13   0.00000000000000E+00   0.00000000000000E+00