DF-ISE text

Info {
  version   = 1.0
  type      = xyplot
  datasets  = [
    "time"
    "Ntop_0_1 OuterVoltage" "Ntop_0_1 InnerVoltage" "Ntop_0_1 QuasiFermiPotential" "Ntop_0_1 DisplacementCurrent" "Ntop_0_1 eCurrent"
    "Ntop_0_1 hCurrent" "Ntop_0_1 TotalCurrent" "Ntop_0_1 Charge" "Ntop_1_0 OuterVoltage" "Ntop_1_0 InnerVoltage"
    "Ntop_1_0 QuasiFermiPotential" "Ntop_1_0 DisplacementCurrent" "Ntop_1_0 eCurrent" "Ntop_1_0 hCurrent" "Ntop_1_0 TotalCurrent"
    "Ntop_1_0 Charge" "Ntop_1_1 OuterVoltage" "Ntop_1_1 InnerVoltage" "Ntop_1_1 QuasiFermiPotential" "Ntop_1_1 DisplacementCurrent"
    "Ntop_1_1 eCurrent" "Ntop_1_1 hCurrent" "Ntop_1_1 TotalCurrent" "Ntop_1_1 Charge" "Ptop OuterVoltage"
    "Ptop InnerVoltage" "Ptop QuasiFermiPotential" "Ptop DisplacementCurrent" "Ptop eCurrent" "Ptop hCurrent"
    "Ptop TotalCurrent" "Ptop Charge" "Pbot OuterVoltage" "Pbot InnerVoltage" "Pbot QuasiFermiPotential"
    "Pbot DisplacementCurrent" "Pbot eCurrent" "Pbot hCurrent" "Pbot TotalCurrent" "Pbot Charge"
    "Ntop_0_0 OuterVoltage" "Ntop_0_0 InnerVoltage" "Ntop_0_0 QuasiFermiPotential" "Ntop_0_0 DisplacementCurrent" "Ntop_0_0 eCurrent"
    "Ntop_0_0 hCurrent" "Ntop_0_0 TotalCurrent" "Ntop_0_0 Charge" ]
  functions = [
    Time
    OuterVoltage InnerVoltage QuasiFermiPotential DisplacementCurrent eCurrent
    hCurrent TotalCurrent Charge OuterVoltage InnerVoltage
    QuasiFermiPotential DisplacementCurrent eCurrent hCurrent TotalCurrent
    Charge OuterVoltage InnerVoltage QuasiFermiPotential DisplacementCurrent
    eCurrent hCurrent TotalCurrent Charge OuterVoltage
    InnerVoltage QuasiFermiPotential DisplacementCurrent eCurrent hCurrent
    TotalCurrent Charge OuterVoltage InnerVoltage QuasiFermiPotential
    DisplacementCurrent eCurrent hCurrent TotalCurrent Charge
    OuterVoltage InnerVoltage QuasiFermiPotential DisplacementCurrent eCurrent
    hCurrent TotalCurrent Charge ]
}

Data {
      5.00000000000000E-13
      8.00000000000000E-01   8.00000000000000E-01   0.00000000000000E+00   7.38285171285121E-15   2.80367099393673E-13
      2.07509555403202E-17   2.87770702062064E-13   1.81730493314432E-13   8.00000000000000E-01   8.00000000000000E-01
      0.00000000000000E+00   1.47692422150637E-14   2.81641990633592E-13   2.07509434273677E-17   2.96431983792083E-13
      2.57083257263026E-13   8.00000000000000E-01   8.00000000000000E-01   0.00000000000000E+00   1.31496882524020E-14
      2.83101056827696E-13   2.07509550507758E-17   2.96271496035149E-13   2.36080971341182E-13   0.00000000000000E+00
      0.00000000000000E+00   0.00000000000000E+00  -4.39380590320417E-13   1.82675923259656E-12   1.33923315105212E-08
      1.33937188891635E-08  -2.41301524395453E-13  -4.00000000000000E+01  -4.00000000000000E+01   0.00000000000000E+00
     -1.19901538246470E-13   3.62309377288447E-12  -1.33983948735486E-08  -1.33948916813140E-08  -6.32439967294867E-13
      8.00000000000000E-01   8.00000000000000E-01   0.00000000000000E+00   8.27755056543164E-15   2.84019667186748E-13
      2.07509515767272E-17   2.92317968703757E-13   1.98846769771680E-13
      1.25000000000000E-12
      8.00000000000000E-01   8.00000000000000E-01   0.00000000000000E+00   3.22333183168006E-15   2.84197782445298E-13
      2.07509533387450E-17   2.87441865230317E-13   1.81730493314433E-13   8.00000000000000E-01   8.00000000000000E-01
      0.00000000000000E+00   2.03370313288298E-15   2.83391688280296E-13   2.07509432650443E-17   2.85446142356444E-13
      2.57083257263027E-13   8.00000000000000E-01   8.00000000000000E-01   0.00000000000000E+00   2.20525575049699E-15
      2.81658710827965E-13   2.07509535467996E-17   2.83884717532009E-13   2.36080971341182E-13   0.00000000000000E+00
      0.00000000000000E+00   0.00000000000000E+00  -4.59780942638225E-13   8.43591661488895E-12   1.33863411419614E-08
      1.33943172776336E-08  -2.41301524394972E-13  -4.00000000000000E+01  -4.00000000000000E+01   0.00000000000000E+00
     -5.04846416459575E-13   1.68000602580641E-11  -1.34117747087920E-08  -1.33954794949504E-08  -6.32439967295081E-13
      8.00000000000000E-01   8.00000000000000E-01   0.00000000000000E+00   3.41052375371387E-15   3.02013316936874E-13
      2.07509527105208E-17   3.05444591643298E-13   1.98846769771409E-13
      2.37500000000000E-12
      8.00000000000000E-01   8.00000000000000E-01   0.00000000000000E+00   1.14641624335549E-15   3.10915716356433E-13
      2.07509568087821E-17   3.12082883556598E-13   1.81730493314450E-13   8.00000000000000E-01   8.00000000000000E-01
      0.00000000000000E+00   8.53023691865257E-16   3.11205474010104E-13   2.07509528032158E-17   3.12079248654772E-13
      2.57083257263044E-13   8.00000000000000E-01   8.00000000000000E-01   0.00000000000000E+00  -5.41362735805417E-16
      2.95586456327331E-13   2.07509534123755E-17   2.95065844544938E-13   2.36080971341190E-13   0.00000000000000E+00
      0.00000000000000E+00   0.00000000000000E+00   7.31800274075696E-13   6.98292791747924E-11   1.33309059316429E-08
      1.34014670110918E-08  -2.41301524387825E-13  -4.00000000000000E+01  -4.00000000000000E+01   0.00000000000000E+00
     -5.52167248561232E-12   1.39133094480328E-10  -1.35365076174319E-08  -1.34028961954372E-08  -6.32439967298254E-13
      8.00000000000000E-01   8.00000000000000E-01   0.00000000000000E+00   9.07261656204122E-15   5.00863001155510E-13
      2.07509532413175E-17   5.09956368670792E-13   1.98846769767396E-13
      4.06250000000000E-12
      8.00000000000000E-01   8.00000000000000E-01   0.00000000000000E+00   1.97139231098895E-14   8.72570095952287E-13
      2.07509538661720E-17   8.92304770016043E-13   1.81730493314955E-13   8.00000000000000E-01   8.00000000000000E-01
      0.00000000000000E+00   2.27454370312526E-14   8.72575934276280E-13   2.07509504641207E-17   8.95342122257997E-13
      2.57083257263548E-13   8.00000000000000E-01   8.00000000000000E-01   0.00000000000000E+00   1.14431912132044E-14
      5.49172992646611E-13   2.07509538368565E-17   5.60636934813652E-13   2.36080971341419E-13   0.00000000000000E+00
      0.00000000000000E+00   0.00000000000000E+00   7.20441079898094E-12   1.05983416959648E-09   1.24924667875109E-08
      1.35595053679063E-08  -2.41301524174427E-13  -4.00000000000000E+01  -4.00000000000000E+01   0.00000000000000E+00
     -1.16358393817945E-10   2.10989322941270E-09  -1.55603418356497E-08  -1.35668070000550E-08  -6.32439967393083E-13
      8.00000000000000E-01   8.00000000000000E-01   0.00000000000000E+00   1.40392280232684E-13   4.81293529038259E-12
      2.07509567420096E-17   4.95334832157201E-12   1.98846769647586E-13
      6.59375000000000E-12
      8.00000000000000E-01   8.00000000000000E-01   0.00000000000000E+00   3.54154903590642E-13   1.73900209483378E-11
      2.07509556415080E-17   1.77441966028841E-11   1.81730493336269E-13   8.00000000000000E-01   8.00000000000000E-01
      0.00000000000000E+00   3.53760199222664E-13   1.73964957997479E-11   2.07509530467837E-17   1.77502767499236E-11
      2.57083257284873E-13   8.00000000000000E-01   8.00000000000000E-01   0.00000000000000E+00   1.59286734199721E-13
      8.02039095154442E-12   2.07509533053831E-17   8.17969843669744E-12   2.36080971351066E-13   0.00000000000000E+00
      0.00000000000000E+00   0.00000000000000E+00   1.43654742520671E-10   2.12260173872332E-08  -3.09911800273186E-09
      1.82705541270220E-08  -2.41301514954544E-13  -4.00000000000000E+01  -4.00000000000000E+01   0.00000000000000E+00
     -3.41772379134757E-09   4.21872005019967E-08  -5.72177468502036E-08  -1.84482701395545E-08  -6.32439971499529E-13
      8.00000000000000E-01   8.00000000000000E-01   0.00000000000000E+00   2.71287767185904E-12   1.31328942320372E-10
      2.07507994444764E-17   1.34041840743031E-10   1.98846764481866E-13
      1.03906250000000E-11
      8.00000000000000E-01   8.00000000000000E-01   0.00000000000000E+00   2.91384263020209E-12   2.28101586877498E-10
      2.07509561660049E-17   2.31015450258656E-10   1.81730493780866E-13   8.00000000000000E-01   8.00000000000000E-01
      0.00000000000000E+00   2.91618598046819E-12   2.28190431930662E-10   2.07509476961428E-17   2.31106638662078E-10
      2.57083257729695E-13   8.00000000000000E-01   8.00000000000000E-01   0.00000000000000E+00   1.31414818799027E-12
      1.03179994318643E-10   2.07509533704883E-17   1.04494163257587E-10   2.36080971552000E-13   0.00000000000000E+00
      0.00000000000000E+00   0.00000000000000E+00   1.19411491552852E-09   1.76929039144820E-07  -9.87443791767475E-08
      7.93787748836011E-08  -2.41301318651853E-13  -4.00000000000000E+01  -4.00000000000000E+01   0.00000000000000E+00
     -4.61945369615666E-08   3.50532961892729E-07  -3.86048825876975E-07  -8.17104009458129E-08  -6.32440059340524E-13
      8.00000000000000E-01   8.00000000000000E-01   0.00000000000000E+00   2.22508613048432E-11   1.74275892797771E-09
      2.07512665160791E-17   1.76500981003382E-09   1.98846654929815E-13
      1.60859375000000E-11
      8.00000000000000E-01   8.00000000000000E-01   0.00000000000000E+00   1.50854568985388E-12   5.36115046772924E-10
      2.07509528661536E-17   5.37623613213731E-10   1.81730496017816E-13   8.00000000000000E-01   8.00000000000000E-01
      0.00000000000000E+00   1.50974062980984E-12   5.36339195624823E-10   2.07509469061770E-17   5.37848957005580E-10
      2.57083259968098E-13   8.00000000000000E-01   8.00000000000000E-01   0.00000000000000E+00   6.74041591109155E-13
      2.41389852226253E-10   2.07509539027151E-17   2.42063914568316E-10   2.36080972560026E-13   0.00000000000000E+00
      0.00000000000000E+00   0.00000000000000E+00   6.28878544497949E-10   9.59133744789009E-08   7.60910053769689E-08
      1.72633258400368E-07  -2.41300308819102E-13  -4.00000000000000E+01  -4.00000000000000E+01   0.00000000000000E+00
     -1.11065821535239E-07   1.84706764298182E-07  -2.51695674266852E-07  -1.78054731503908E-07  -6.32440514888459E-13
      8.00000000000000E-01   8.00000000000000E-01   0.00000000000000E+00   1.15412267893891E-11   4.09239537121231E-09
      2.07510180934763E-17   4.10393661875272E-09   1.98846095161619E-13
      2.46289062500000E-11
      8.00000000000000E-01   8.00000000000000E-01   0.00000000000000E+00   2.53746765085878E-14   6.59285551334251E-10
      2.07509555056467E-17   6.59310946761715E-10   1.81730501282537E-13   8.00000000000000E-01   8.00000000000000E-01
      0.00000000000000E+00   2.57689478649838E-14   6.59583151666685E-10   2.07509557116608E-17   6.59608941365506E-10
      2.57083265237879E-13   8.00000000000000E-01   8.00000000000000E-01   0.00000000000000E+00   5.00353155907907E-15
      2.95253440117554E-10   2.07509538177966E-17   2.95258464400067E-10   2.36080974923195E-13   0.00000000000000E+00
      0.00000000000000E+00   0.00000000000000E+00   9.24115628264341E-13   4.20843725717263E-09   2.06654453822272E-07
      2.10863815195073E-07  -2.41297953058689E-13  -4.00000000000000E+01  -4.00000000000000E+01   0.00000000000000E+00
     -1.36540076840010E-07   3.42236216234097E-10  -8.13343177358783E-08  -2.17532158359655E-07  -6.32441592048281E-13
      8.00000000000000E-01   8.00000000000000E-01   0.00000000000000E+00   3.65910610205460E-13   5.05379888069280E-09
      2.07511318590545E-17   5.05416481205414E-09   1.98844803663358E-13
      3.74433593750000E-11
      8.00000000000000E-01   8.00000000000000E-01   0.00000000000000E+00   2.87754427869138E-14   6.68563273278838E-10
      2.07509549624388E-17   6.68592069472580E-10   1.81730510000855E-13   8.00000000000000E-01   8.00000000000000E-01
      0.00000000000000E+00   2.90030207382724E-14   6.68873222827426E-10   2.07509477018545E-17   6.68902246599112E-10
      2.57083273969246E-13   8.00000000000000E-01   8.00000000000000E-01   0.00000000000000E+00   7.01216616949522E-15
      2.97202783507647E-10   2.07509539321283E-17   2.97209816424770E-10   2.36080978814391E-13   0.00000000000000E+00
      0.00000000000000E+00   0.00000000000000E+00  -1.85114936510097E-12   3.62246044853011E-09   2.07108515756767E-07
      2.10729125055932E-07  -2.41294232503920E-13  -4.00000000000000E+01  -4.00000000000000E+01   0.00000000000000E+00
     -1.34406059794910E-07  -2.37110629982622E-14  -8.31613745268204E-08  -2.17567458032793E-07  -6.32443328338672E-13
      8.00000000000000E-01   8.00000000000000E-01   0.00000000000000E+00   4.86936721618587E-13   5.20314188689222E-09
      2.07509770827829E-17   5.20362884436481E-09   1.98842798058100E-13
      5.66650390625000E-11
      8.00000000000000E-01   8.00000000000000E-01   0.00000000000000E+00  -1.54548380872272E-14   6.69661671716705E-10
      2.07509548786086E-17   6.69646237629572E-10   1.81730523389060E-13   8.00000000000000E-01   8.00000000000000E-01
      0.00000000000000E+00  -1.53212706804386E-14   6.69976754296029E-10   2.07509572663101E-17   6.69961453776306E-10
      2.57083287387015E-13   8.00000000000000E-01   8.00000000000000E-01   0.00000000000000E+00  -1.33863981816403E-14
      2.94384256640951E-10   2.07509537826348E-17   2.94370890993723E-10   2.36080984739356E-13   0.00000000000000E+00
      0.00000000000000E+00   0.00000000000000E+00  -2.23820962474589E-12   3.07377141128221E-09   2.06662547832460E-07
      2.09734081034117E-07  -2.41288900384382E-13  -4.00000000000000E+01  -4.00000000000000E+01   0.00000000000000E+00
     -1.30970290483290E-07  -2.37111576009169E-14  -8.57587249291323E-08  -2.16729039123580E-07  -6.32445878640235E-13
      8.00000000000000E-01   8.00000000000000E-01   0.00000000000000E+00   1.86916617348615E-13   5.36079256969435E-09
      2.07508227296041E-17   5.36097950706252E-09   1.98839983509188E-13
      8.54975585937500E-11
      8.00000000000000E-01   8.00000000000000E-01   0.00000000000000E+00  -3.93824381273494E-14   6.46638563362605E-10
      2.07509526550852E-17   6.46599201675430E-10   1.81730543463991E-13   8.00000000000000E-01   8.00000000000000E-01
      0.00000000000000E+00  -3.93720640632656E-14   6.46949017714162E-10   2.07509613331539E-17   6.46909666401060E-10
      2.57083307523156E-13   8.00000000000000E-01   8.00000000000000E-01   0.00000000000000E+00  -2.40725512763772E-14
      2.79005922528337E-10   2.07509542150133E-17   2.78981870728015E-10   2.36080993501952E-13   0.00000000000000E+00
      0.00000000000000E+00   0.00000000000000E+00  -2.71480873260002E-12   2.39990083759613E-09   2.05610455799586E-07
      2.08007641828449E-07  -2.41281343781274E-13  -4.00000000000000E+01  -4.00000000000000E+01   0.00000000000000E+00
     -1.26223613600315E-07  -2.37112583093157E-14  -8.87937997593267E-08  -2.15017437070900E-07  -6.32449585813985E-13
      8.00000000000000E-01   8.00000000000000E-01   0.00000000000000E+00   3.85259505309666E-14   5.43726595694494E-09
      2.07510257728204E-17   5.43730450364650E-09   1.98836085106159E-13
      1.28746337890625E-10
      8.00000000000000E-01   8.00000000000000E-01   0.00000000000000E+00  -5.61714548975153E-14   5.89022309734426E-10
      2.07509564544711E-17   5.88966159030485E-10   1.81730572232060E-13   8.00000000000000E-01   8.00000000000000E-01
      0.00000000000000E+00  -5.62582098226778E-14   5.89313681083954E-10   2.07509483715161E-17   5.89257443625080E-10
      2.57083336406219E-13   8.00000000000000E-01   8.00000000000000E-01   0.00000000000000E+00  -3.14645714171247E-14
      2.45736386467776E-10   2.07509539751317E-17   2.45704942647313E-10   2.36081005759347E-13   0.00000000000000E+00
      0.00000000000000E+00   0.00000000000000E+00  -2.88410024431099E-12   1.65324860928829E-09   2.03611796368429E-07
      2.05262160877473E-07  -2.41270747061654E-13  -4.00000000000000E+01  -4.00000000000000E+01   0.00000000000000E+00
     -1.20041656816078E-07  -2.37114022470179E-14  -9.20516977095555E-08  -2.12093378237036E-07  -6.32454909123930E-13
      8.00000000000000E-01   8.00000000000000E-01   0.00000000000000E+00  -6.83890561845129E-14   5.40735718256417E-09
      2.07509332541644E-17   5.40728881425892E-09   1.98830741787955E-13
      1.93619506835937E-10
      8.00000000000000E-01   8.00000000000000E-01   0.00000000000000E+00  -6.66315632855314E-14   4.79953559520356E-10
      2.07509563954496E-17   4.79886948708026E-10   1.81730610228533E-13   8.00000000000000E-01   8.00000000000000E-01
      0.00000000000000E+00  -6.67216813925142E-14   4.80208713016499E-10   2.07509556593911E-17   4.80142012086062E-10
      2.57083374595954E-13   8.00000000000000E-01   8.00000000000000E-01   0.00000000000000E+00  -3.57012242494537E-14
      1.86306550110124E-10   2.07509535137028E-17   1.86270869636828E-10   2.36081021196450E-13   0.00000000000000E+00
      0.00000000000000E+00   0.00000000000000E+00  -2.98963083164490E-12   9.43511162270964E-10   2.00209184004492E-07
      2.01149705535931E-07  -2.41256036118400E-13  -4.00000000000000E+01  -4.00000000000000E+01   0.00000000000000E+00
     -1.12526564888245E-07  -2.37116042367096E-14  -9.49829328173062E-08  -2.07509521417156E-07  -6.32462448089857E-13
      8.00000000000000E-01   8.00000000000000E-01   0.00000000000000E+00  -1.40273417313910E-13   5.21365630345937E-09
      2.07508766018490E-17   5.21351605079293E-09   1.98823478187318E-13
      2.42274383544922E-10
      8.00000000000000E-01   8.00000000000000E-01   0.00000000000000E+00  -6.98560876074362E-14   3.89852460002491E-10
      2.07509548863665E-17   3.89782624665838E-10   1.81730633736894E-13   8.00000000000000E-01   8.00000000000000E-01
      0.00000000000000E+00  -6.98644803903349E-14   3.90082352606102E-10   2.07509515851167E-17   3.90012508876664E-10
      2.57083398250802E-13   8.00000000000000E-01   8.00000000000000E-01   0.00000000000000E+00  -3.66886365046619E-14
      1.38611055549909E-10   2.07509546622937E-17   1.38574387664359E-10   2.36081030052326E-13   0.00000000000000E+00
      0.00000000000000E+00   0.00000000000000E+00  -3.06253263932407E-12   6.23453139461886E-10   1.97454197233513E-07
      1.98074587840336E-07  -2.41245711161612E-13  -4.00000000000000E+01  -4.00000000000000E+01   0.00000000000000E+00
     -1.07846968033128E-07  -2.37117463924101E-14  -9.61529223597206E-08  -2.03999914104595E-07  -6.32467808009495E-13
      8.00000000000000E-01   8.00000000000000E-01   0.00000000000000E+00  -1.67967783108457E-13   5.00712469008392E-09
      2.07510371583019E-17   5.00695674305185E-09   1.98818457131087E-13
      2.78765541076660E-10
      8.00000000000000E-01   8.00000000000000E-01   0.00000000000000E+00  -7.07440667864896E-14   3.20367915046245E-10
      2.07509533175781E-17   3.20297191730412E-10   1.81730648283387E-13   8.00000000000000E-01   8.00000000000000E-01
      0.00000000000000E+00  -7.07043192201128E-14   3.20581580233013E-10   2.07509551542251E-17   3.20510896664749E-10
      2.57083412903565E-13   8.00000000000000E-01   8.00000000000000E-01   0.00000000000000E+00  -3.65855880896718E-14
      1.02373297123142E-10   2.07509549836893E-17   1.02336732286008E-10   2.36081035053929E-13   0.00000000000000E+00
      0.00000000000000E+00   0.00000000000000E+00  -3.14160909634764E-12   4.58635997947848E-10   1.95299133446758E-07
      1.95754627835610E-07  -2.41238289026531E-13  -4.00000000000000E+01  -4.00000000000000E+01   0.00000000000000E+00
     -1.04669131321156E-07  -2.37118484915154E-14  -9.66613670325959E-08  -2.01330522065601E-07  -6.32471685149289E-13
      8.00000000000000E-01   8.00000000000000E-01   0.00000000000000E+00  -1.81477666093435E-13   4.83293086622396E-09
      2.07509597753008E-17   4.83274940930882E-09   1.98814877934939E-13
      3.33502277374268E-10
      8.00000000000000E-01   8.00000000000000E-01   0.00000000000000E+00  -7.08124723293914E-14   2.15517258163484E-10
      2.07509527727935E-17   2.15446466442107E-10   1.81730664986359E-13   8.00000000000000E-01   8.00000000000000E-01
      0.00000000000000E+00  -7.08293358364055E-14   2.15710715109393E-10   2.07509524665465E-17   2.15639906524509E-10
      2.57083429757220E-13   8.00000000000000E-01   8.00000000000000E-01   0.00000000000000E+00  -3.60259542778456E-14
      4.84535031927867E-11   2.07509539115614E-17   4.84174979894628E-11   2.36081039882101E-13   0.00000000000000E+00
      0.00000000000000E+00   0.00000000000000E+00  -3.20555799181417E-12   2.90035270752770E-10   1.91956210463761E-07
      1.92243040176522E-07  -2.41227597754831E-13  -4.00000000000000E+01  -4.00000000000000E+01   0.00000000000000E+00
     -1.00238242478848E-07  -2.37119951567554E-14  -9.70358693561310E-08  -1.97274135546974E-07  -6.32477292381449E-13
      8.00000000000000E-01   8.00000000000000E-01   0.00000000000000E+00  -1.95756674691186E-13   4.55178723541929E-09
      2.07510227768397E-17   4.55159149949562E-09   1.98809755510600E-13
      3.74554829597473E-10
      8.00000000000000E-01   8.00000000000000E-01   0.00000000000000E+00  -6.99557609456286E-14   1.37520697943841E-10
      2.07509532517056E-17   1.37450762933848E-10   1.81730673465603E-13   8.00000000000000E-01   8.00000000000000E-01
      0.00000000000000E+00  -7.00516396107507E-14   1.37701621392876E-10   2.07509603178174E-17   1.37631590504225E-10
      2.57083438341624E-13   8.00000000000000E-01   8.00000000000000E-01   0.00000000000000E+00  -3.51345736898917E-14
      8.91899875353878E-12   2.07509534714250E-17   8.88388493080236E-12   2.36081041414918E-13   0.00000000000000E+00
      0.00000000000000E+00   0.00000000000000E+00  -3.24446105459495E-12   2.06779727423892E-10   1.89381410560206E-07
      1.89584945826575E-07  -2.41219888147961E-13  -4.00000000000000E+01  -4.00000000000000E+01   0.00000000000000E+00
     -9.70966614695440E-08  -2.37121004216778E-14  -9.71014708613544E-08  -1.94198156042999E-07  -6.32481342727565E-13
      8.00000000000000E-01   8.00000000000000E-01   0.00000000000000E+00  -2.03517773900633E-13   4.32944747507758E-09
      2.07509415568560E-17   4.32924397805462E-09   1.98806077653380E-13
      4.36133657932282E-10
      8.00000000000000E-01   8.00000000000000E-01   0.00000000000000E+00  -6.75924751612689E-14   2.32646101590029E-11
      2.07509533919202E-17   2.31970384347950E-11   1.81730679764408E-13   8.00000000000000E-01   8.00000000000000E-01
      0.00000000000000E+00  -6.76126265799153E-14   2.34294763733217E-11   2.07509485549355E-17   2.33618844976903E-11
      2.57083444784433E-13   8.00000000000000E-01   8.00000000000000E-01   0.00000000000000E+00  -3.33612198546182E-14
     -4.80731794321544E-11   2.07509532485661E-17  -4.81065199010558E-11   2.36081040458264E-13   0.00000000000000E+00
      0.00000000000000E+00   0.00000000000000E+00  -3.28874646873848E-12   1.24841588100780E-10   1.85442645412945E-07
      1.85564198254577E-07  -2.41208751623541E-13  -4.00000000000000E+01  -4.00000000000000E+01   0.00000000000000E+00
     -9.25629103280969E-08  -2.37122512848967E-14  -9.69815747065957E-08  -1.89544508746944E-07  -6.32487181790986E-13
      8.00000000000000E-01   8.00000000000000E-01   0.00000000000000E+00  -2.12862672477230E-13   3.98207093125708E-09
      2.07509766738387E-17   3.98185808933558E-09   1.98800768407419E-13
      5.28501900434494E-10
      8.00000000000000E-01   8.00000000000000E-01   0.00000000000000E+00  -6.26172562906891E-14  -1.39017095309767E-10
      2.07509575637004E-17  -1.39079691815100E-10   1.81730675299190E-13   8.00000000000000E-01   8.00000000000000E-01
      0.00000000000000E+00  -6.26282560714225E-14  -1.38873139843423E-10   2.07509484446091E-17  -1.38935747348546E-10
      2.57083440502806E-13   8.00000000000000E-01   8.00000000000000E-01   0.00000000000000E+00  -2.98534472695549E-14
     -1.26911147552851E-10   2.07509542086507E-17  -1.26940980249167E-10   2.36081032118102E-13   0.00000000000000E+00
      0.00000000000000E+00   0.00000000000000E+00  -3.34205313637772E-12   5.87225525238919E-11   1.79422438658852E-07
      1.79477819158240E-07  -2.41192871177406E-13  -4.00000000000000E+01  -4.00000000000000E+01   0.00000000000000E+00
     -8.60038244630170E-08  -2.37124627653424E-14  -9.65022080902731E-08  -1.82506056265753E-07  -6.32495427919237E-13
      8.00000000000000E-01   8.00000000000000E-01   0.00000000000000E+00  -2.25920675264647E-13   3.43341942685027E-09
      2.07509687078282E-17   3.43319352692598E-09   1.98793151176546E-13
      5.97778082311153E-10
      8.00000000000000E-01   8.00000000000000E-01   0.00000000000000E+00  -5.80983270940216E-14  -2.51801910565276E-10
      2.07509543917851E-17  -2.51859988141416E-10   1.81730661586112E-13   8.00000000000000E-01   8.00000000000000E-01
      0.00000000000000E+00  -5.81256978754313E-14  -2.51672661935734E-10   2.07509550079920E-17  -2.51730766882655E-10
      2.57083426900877E-13   8.00000000000000E-01   8.00000000000000E-01   0.00000000000000E+00  -2.69138626751914E-14
     -1.79974459161274E-10   2.07509534588393E-17  -1.80001352272996E-10   2.36081020849618E-13   0.00000000000000E+00
      0.00000000000000E+00   0.00000000000000E+00  -3.37377804667020E-12   3.39301347940945E-11   1.74855100547690E-07
      1.74885656904438E-07  -2.41181522275521E-13  -4.00000000000000E+01  -4.00000000000000E+01   0.00000000000000E+00
     -8.11984742047730E-08  -2.37126103123642E-14  -9.60036735321223E-08  -1.77202171449506E-07  -6.32501219287472E-13
      8.00000000000000E-01   8.00000000000000E-01   0.00000000000000E+00  -2.35897013087372E-13   3.00034252862639E-09
      2.07509636985275E-17   3.00010665236427E-09   1.98787632226388E-13
      7.01692355126143E-10
      8.00000000000000E-01   8.00000000000000E-01   0.00000000000000E+00  -5.05156548079021E-14  -4.03974689165139E-10
      2.07509545219256E-17  -4.04025184068992E-10   1.81730625912095E-13   8.00000000000000E-01   8.00000000000000E-01
      0.00000000000000E+00  -5.05211113359102E-14  -4.03866487169491E-10   2.07509547139353E-17  -4.03916987529872E-10
      2.57083391348727E-13   8.00000000000000E-01   8.00000000000000E-01   0.00000000000000E+00  -2.21943209566795E-14
     -2.48731134771140E-10   2.07509527199950E-17  -2.48753308341144E-10   2.36080996925883E-13   0.00000000000000E+00
      0.00000000000000E+00   0.00000000000000E+00  -3.37488966880431E-12   1.48908888207108E-11   1.67968660235039E-07
      1.67980176234191E-07  -2.41165275860115E-13  -4.00000000000000E+01  -4.00000000000000E+01   0.00000000000000E+00
     -7.40953956007726E-08  -2.37128147181125E-14  -9.51420479803830E-08  -1.69237467293970E-07  -6.32509287457588E-13
      8.00000000000000E-01   8.00000000000000E-01   0.00000000000000E+00  -2.52258477938725E-13   2.31423877744621E-09
      2.07509535912681E-17   2.31398653971922E-09   1.98779549130998E-13
      7.79628059737384E-10
      8.00000000000000E-01   8.00000000000000E-01   0.00000000000000E+00  -4.42615465955043E-14  -5.03366204495930E-10
      2.07509534843455E-17  -5.03410445291572E-10   1.81730588445576E-13   8.00000000000000E-01   8.00000000000000E-01
      0.00000000000000E+00  -4.42829438038378E-14  -5.03272059955511E-10   2.07509542235917E-17  -5.03316322148360E-10
      2.57083353936823E-13   8.00000000000000E-01   8.00000000000000E-01   0.00000000000000E+00  -1.84758764121347E-14
     -2.91341164061634E-10   2.07509531020028E-17  -2.91359619187093E-10   2.36080974201234E-13   0.00000000000000E+00
      0.00000000000000E+00   0.00000000000000E+00  -3.37502460464812E-12   8.17720804551560E-12   1.62794548735221E-07
      1.62799350918662E-07  -2.41153651622541E-13  -4.00000000000000E+01  -4.00000000000000E+01   0.00000000000000E+00
     -6.88293746066437E-08  -2.37129551001546E-14  -9.44424265998502E-08  -1.63271824919449E-07  -6.32514856780333E-13
      8.00000000000000E-01   8.00000000000000E-01   0.00000000000000E+00  -2.63926165236785E-13   1.77082429282894E-09
      2.07509584120834E-17   1.77056038741466E-09   1.98773591819242E-13
      8.96531616654247E-10
      8.00000000000000E-01   8.00000000000000E-01   0.00000000000000E+00  -3.41067488813051E-14  -6.26442810707287E-10
      2.07509520792130E-17  -6.26476896705216E-10   1.81730517819204E-13   8.00000000000000E-01   8.00000000000000E-01
      0.00000000000000E+00  -3.41127096271852E-14  -6.26363733112559E-10   2.07509464120074E-17  -6.26397825071240E-10
      2.57083283330943E-13   8.00000000000000E-01   8.00000000000000E-01   0.00000000000000E+00  -1.28111211777161E-14
     -3.40405827220250E-10   2.07509523807952E-17  -3.40418617590475E-10   2.36080934093816E-13   0.00000000000000E+00
      0.00000000000000E+00   0.00000000000000E+00  -3.37782562825089E-12   3.30434554997539E-12   1.55037158199728E-07
      1.55037084719649E-07  -2.41137051159658E-13  -4.00000000000000E+01  -4.00000000000000E+01   0.00000000000000E+00
     -6.10091962474534E-08  -2.37131455396736E-14  -9.33493349148839E-08  -1.54358554875483E-07  -6.32522445625579E-13
      8.00000000000000E-01   8.00000000000000E-01   0.00000000000000E+00  -2.78040638435264E-13   9.15041515086875E-10
      2.07509822530745E-17   9.14763495199422E-10   1.98764761541275E-13
      9.84209284341894E-10
      8.00000000000000E-01   8.00000000000000E-01   0.00000000000000E+00  -2.59959824855538E-14  -6.97055335268005E-10
      2.07509511602901E-17  -6.97081310499539E-10   1.81730455495124E-13   8.00000000000000E-01   8.00000000000000E-01
      0.00000000000000E+00  -2.60438541221297E-14  -6.96980746791259E-10   2.07509505456543E-17  -6.97006769894430E-10
      2.57083220973425E-13   8.00000000000000E-01   8.00000000000000E-01   0.00000000000000E+00  -8.61667428036728E-15
     -3.65462079537674E-10   2.07509529003248E-17  -3.65470675461002E-10   2.36080900402048E-13   0.00000000000000E+00
      0.00000000000000E+00   0.00000000000000E+00  -3.38812924561571E-12   1.71122710754136E-12   1.49223412795848E-07
      1.49221735893709E-07  -2.41125235632614E-13  -4.00000000000000E+01  -4.00000000000000E+01   0.00000000000000E+00
     -5.52024741832605E-08  -2.37132728425654E-14  -9.25096518774844E-08  -1.47712149774018E-07  -6.32527540024660E-13
      8.00000000000000E-01   8.00000000000000E-01   0.00000000000000E+00  -2.83808529299224E-13   2.50256423941551E-10