DF-ISE text

Info {
  version   = 1.0
  type      = xyplot
  datasets  = [
    "time"
    "Ntop OuterVoltage" "Ntop InnerVoltage" "Ntop QuasiFermiPotential" "Ntop DisplacementCurrent" "Ntop eCurrent"
    "Ntop hCurrent" "Ntop TotalCurrent" "Ntop Charge" "Ptop OuterVoltage" "Ptop InnerVoltage"
    "Ptop QuasiFermiPotential" "Ptop DisplacementCurrent" "Ptop eCurrent" "Ptop hCurrent" "Ptop TotalCurrent"
    "Ptop Charge" "Pbot OuterVoltage" "Pbot InnerVoltage" "Pbot QuasiFermiPotential" "Pbot DisplacementCurrent"
    "Pbot eCurrent" "Pbot hCurrent" "Pbot TotalCurrent" "Pbot Charge" ]
  functions = [
    Time
    OuterVoltage InnerVoltage QuasiFermiPotential DisplacementCurrent eCurrent
    hCurrent TotalCurrent Charge OuterVoltage InnerVoltage
    QuasiFermiPotential DisplacementCurrent eCurrent hCurrent TotalCurrent
    Charge OuterVoltage InnerVoltage QuasiFermiPotential DisplacementCurrent
    eCurrent hCurrent TotalCurrent Charge ]
}

Data {
      5.00000000000000E-13
      8.00000000000000E-01   8.00000000000000E-01   0.00000000000000E+00   1.05772353607736E-14   1.17639542533289E-11
     -1.09965334801508E-11   7.77998008538867E-13   2.34224766837385E-13   0.00000000000000E+00   0.00000000000000E+00
      0.00000000000000E+00  -1.23465351092269E-13  -1.97157898427933E-16   1.75458770619525E-09   1.75446404368626E-09
     -6.21801123148893E-14  -4.50000000000000E+01  -4.50000000000000E+01   0.00000000000000E+00  -6.51853608585798E-13
      2.19331510879192E-11  -1.77652333917413E-09  -1.75524204169479E-09  -1.72044654522496E-13
      1.25000000000000E-12
      8.00000000000000E-01   8.00000000000000E-01   0.00000000000000E+00   1.64164256259133E-13   5.36352252058775E-11
     -5.07413450890553E-11   3.05804437308130E-12   2.34224766837993E-13   0.00000000000000E+00   0.00000000000000E+00
      0.00000000000000E+00   4.43092273456647E-14  -1.97157898424262E-16   1.75633092850632E-09   1.75637504057577E-09
     -6.21801123139243E-14  -4.50000000000000E+01  -4.50000000000000E+01   0.00000000000000E+00  -3.74820395384108E-12
      1.01206610878844E-10  -1.85689149187385E-09  -1.75943308494885E-09  -1.72044654524068E-13
      2.37500000000000E-12
      8.00000000000000E-01   8.00000000000000E-01   0.00000000000000E+00   1.27337302228678E-12   4.48455327111581E-10
     -4.19838883492733E-10   2.98898166411354E-11   2.34224766846850E-13   0.00000000000000E+00   0.00000000000000E+00
      0.00000000000000E+00   1.65511460130900E-12  -1.97157898380990E-16   1.77770088829583E-09   1.77935580573924E-09
     -6.21801122994648E-14  -4.50000000000000E+01  -4.50000000000000E+01   0.00000000000000E+00  -4.06056068898427E-11
      8.37169844937881E-10  -2.60580986042842E-09  -1.80924562238038E-09  -1.72044654547385E-13
      4.06250000000000E-12
      8.00000000000000E-01   8.00000000000000E-01   0.00000000000000E+00   1.91429011343378E-11   6.96841719464702E-09
     -6.36905303018063E-09   6.18507065600722E-10   2.34224767107064E-13   0.00000000000000E+00   0.00000000000000E+00
      0.00000000000000E+00   2.45163686185936E-11  -1.97157897390105E-16   2.26909309772461E-09   2.29360926918530E-09
     -6.21801118618439E-14  -4.50000000000000E+01  -4.50000000000000E+01   0.00000000000000E+00  -8.56763882028096E-10
      1.26933868649804E-08  -1.47487393177383E-08  -2.91211633478602E-09  -1.72044655245219E-13
      6.59375000000000E-12
      8.00000000000000E-01   8.00000000000000E-01   0.00000000000000E+00   3.81327628646290E-10   1.45108129211981E-07
     -1.27460052227561E-07   1.80294046130659E-08   2.34224778198105E-13   0.00000000000000E+00   0.00000000000000E+00
      0.00000000000000E+00   4.94711878163731E-10  -1.97157867133244E-16   1.72594849685556E-08   1.77541966495614E-08
     -6.21800927101980E-14  -4.50000000000000E+01  -4.50000000000000E+01   0.00000000000000E+00  -2.51818118946514E-08
      2.53800990058401E-07  -2.64402779426377E-07  -3.57836012626273E-08  -1.72044685487906E-13
      1.03906250000000E-11
      8.00000000000000E-01   8.00000000000000E-01   0.00000000000000E+00   3.18738125001042E-09   1.30102474905455E-06
     -1.06087958278887E-06   2.43332547515696E-07   2.34225013360650E-13   0.00000000000000E+00   0.00000000000000E+00
      0.00000000000000E+00   4.09615632627392E-09  -1.97157468293874E-16   2.14538081800102E-07   2.18634237929219E-07
     -6.21796809178200E-14  -4.50000000000000E+01  -4.50000000000000E+01   0.00000000000000E+00  -3.40258877668604E-07
      2.10882849922010E-06  -2.23053640699641E-06  -4.61966785444914E-07  -1.72045332442830E-13
      1.60859375000000E-11
      8.00000000000000E-01   8.00000000000000E-01   0.00000000000000E+00   1.86422713153136E-09   1.16378678935640E-06
     -5.67699477395112E-07   5.97951539092819E-07   2.34226247854966E-13   0.00000000000000E+00   0.00000000000000E+00
      0.00000000000000E+00   1.91878059791705E-09  -1.97156864329731E-16   5.11460476699586E-07   5.13379257100346E-07
     -6.21775645910382E-14  -4.50000000000000E+01  -4.50000000000000E+01   0.00000000000000E+00  -8.16078431373751E-07
      1.11120765666289E-06  -1.40646002148230E-06  -1.11133079619316E-06  -1.72048683263929E-13
      2.46289062500000E-11
      8.00000000000000E-01   8.00000000000000E-01   0.00000000000000E+00   2.51171952875196E-10   7.96935552509106E-07
     -1.41816691131868E-08   7.83005055348794E-07   2.34229329675760E-13   0.00000000000000E+00   0.00000000000000E+00
      0.00000000000000E+00  -3.08422393740225E-10  -1.97156689618846E-16   5.94103593982678E-07   5.93795171391781E-07
     -6.21727579679644E-14  -4.50000000000000E+01  -4.50000000000000E+01   0.00000000000000E+00  -9.96991120476839E-07
      2.05905100960768E-09  -3.81868157273343E-07  -1.37680022674057E-06  -1.72056571707796E-13
      3.74433593750000E-11
      8.00000000000000E-01   8.00000000000000E-01   0.00000000000000E+00   1.81511051473302E-10   8.59326445910815E-07
     -1.19590950191490E-08   8.47548861943140E-07   2.34234790209807E-13   0.00000000000000E+00   0.00000000000000E+00
      0.00000000000000E+00  -2.31350661133783E-10  -1.97156809017250E-16   5.29987756837199E-07   5.29756405978909E-07
     -6.21655973588072E-14  -4.50000000000000E+01  -4.50000000000000E+01   0.00000000000000E+00  -9.72754019938187E-07
     -6.25635283011752E-15  -4.04551241727510E-07  -1.37730526792205E-06  -1.72069192851001E-13
      5.66650390625000E-11
      8.00000000000000E-01   8.00000000000000E-01   0.00000000000000E+00   1.23269344230930E-10   9.24626849927470E-07
     -1.03597083050841E-08   9.14390410966617E-07   2.34243726579496E-13   0.00000000000000E+00   0.00000000000000E+00
      0.00000000000000E+00  -1.65700145620326E-10  -1.97156941161781E-16   4.58044689252620E-07   4.57878988909843E-07
     -6.21561750119638E-14  -4.50000000000000E+01  -4.50000000000000E+01   0.00000000000000E+00  -9.37803966681978E-07
     -6.25691821913001E-15  -4.34465426937567E-07  -1.37226939987646E-06  -1.72087551567533E-13
      8.54975585937500E-11
      8.00000000000000E-01   8.00000000000000E-01   0.00000000000000E+00   7.31979731764794E-11   9.85361586124210E-07
     -8.34930512622386E-09   9.77085478971162E-07   2.34258092998279E-13   0.00000000000000E+00   0.00000000000000E+00
      0.00000000000000E+00  -1.08434386149142E-10  -1.97157074120086E-16   3.83881117960020E-07   3.83772683376714E-07
     -6.21441634950848E-14  -4.50000000000000E+01  -4.50000000000000E+01   0.00000000000000E+00  -8.92622846917220E-07
     -6.25751405730407E-15  -4.68235309173139E-07  -1.36085816234787E-06  -1.72113929503193E-13
      1.28746337890625E-10
      8.00000000000000E-01   8.00000000000000E-01   0.00000000000000E+00   3.35709362211901E-11   1.03165387543096E-06
     -6.03705782186307E-09   1.02565038854532E-06   2.34280598620473E-13   0.00000000000000E+00   0.00000000000000E+00
      0.00000000000000E+00  -6.27854559448908E-11  -1.97157191780979E-16   3.14665625851349E-07   3.14602840198247E-07
     -6.21292657219091E-14  -4.50000000000000E+01  -4.50000000000000E+01   0.00000000000000E+00  -8.38231014016302E-07
     -6.25836116732271E-15  -5.02022208468900E-07  -1.34025322874356E-06  -1.72151332898563E-13
      1.61182922363281E-10
      8.00000000000000E-01   8.00000000000000E-01   0.00000000000000E+00   1.74556499023076E-11   1.04652648233823E-06
     -4.73837165758661E-09   1.04180556633055E-06   2.34297697918018E-13   0.00000000000000E+00   0.00000000000000E+00
      0.00000000000000E+00  -4.44980703252625E-11  -1.97157241637897E-16   2.81836150156800E-07   2.81791651889318E-07
     -6.21197155238478E-14  -4.50000000000000E+01  -4.50000000000000E+01   0.00000000000000E+00  -8.05402750410379E-07
     -6.25896587795272E-15  -5.18194461550518E-07  -1.32359721821986E-06  -1.72177982394170E-13
      2.09837799072266E-10
      8.00000000000000E-01   8.00000000000000E-01   0.00000000000000E+00   3.95417713637641E-12   1.05309148147597E-06
     -3.29585061725747E-09   1.04979958503585E-06   2.34323173965560E-13   0.00000000000000E+00   0.00000000000000E+00
      0.00000000000000E+00  -2.97060646570014E-11  -1.97157283019780E-16   2.47916856085805E-07   2.47887149823991E-07
     -6.21070166871170E-14  -4.50000000000000E+01  -4.50000000000000E+01   0.00000000000000E+00  -7.64489765491491E-07
     -6.25983303371756E-15  -5.33196963108512E-07  -1.29768673485984E-06  -1.72216157278444E-13
      2.46328956604004E-10
      8.00000000000000E-01   8.00000000000000E-01   0.00000000000000E+00  -1.16431259323313E-12   1.05115924535373E-06
     -2.51602060153780E-09   1.04864206043960E-06   2.34342008423395E-13   0.00000000000000E+00   0.00000000000000E+00
      0.00000000000000E+00  -2.44332731792720E-11  -1.97157298081181E-16   2.29184583115631E-07   2.29160149645295E-07
     -6.20984359096739E-14  -4.50000000000000E+01  -4.50000000000000E+01   0.00000000000000E+00  -7.38326061049817E-07
     -6.26045622753157E-15  -5.39476142774628E-07  -1.27780221008490E-06  -1.72243572513721E-13
      3.01065692901611E-10
      8.00000000000000E-01   8.00000000000000E-01   0.00000000000000E+00  -4.79651273135723E-12   1.04371373061801E-06
     -1.68125091172464E-09   1.04202768319356E-06   2.34369739317633E-13   0.00000000000000E+00   0.00000000000000E+00
      0.00000000000000E+00  -2.10630971483530E-11  -1.97157308293033E-16   2.05592346935510E-07   2.05571283641205E-07
     -6.20867166607799E-14  -4.50000000000000E+01  -4.50000000000000E+01   0.00000000000000E+00  -7.03474311548726E-07
     -6.26135334286949E-15  -5.44124649024683E-07  -1.24759896683476E-06  -1.72283022656855E-13
      3.42118245124817E-10
      8.00000000000000E-01   8.00000000000000E-01   0.00000000000000E+00  -5.68671201786282E-12   1.03675279128267E-06
     -1.24812285167161E-09   1.03549898171899E-06   2.34390145932201E-13   0.00000000000000E+00   0.00000000000000E+00
      0.00000000000000E+00  -2.05276590238343E-11  -1.97157311505431E-16   1.89320784315827E-07   1.89300256459645E-07
     -6.20787357603678E-14  -4.50000000000000E+01  -4.50000000000000E+01   0.00000000000000E+00  -6.79632367407515E-07
     -6.26199904033855E-15  -5.45166864509119E-07  -1.22479923817863E-06  -1.72311410171833E-13
      4.03697073459625E-10
      8.00000000000000E-01   8.00000000000000E-01   0.00000000000000E+00  -5.66914605024622E-12   1.02649908441888E-06
     -8.02306008198792E-10   1.02569110926463E-06   2.34420228038379E-13   0.00000000000000E+00   0.00000000000000E+00
      0.00000000000000E+00  -2.11098579827825E-11  -1.97157316276424E-16   1.64883450559145E-07   1.64862340504005E-07
     -6.20680068579947E-14  -4.50000000000000E+01  -4.50000000000000E+01   0.00000000000000E+00  -6.46025380889649E-07
     -6.26292739764873E-15  -5.44528062616053E-07  -1.19055344976863E-06  -1.72352221180384E-13
      4.49881194710732E-10
      8.00000000000000E-01   8.00000000000000E-01   0.00000000000000E+00  -5.11214878570340E-12   1.01966296755420E-06
     -5.80864824132600E-10   1.01907699058128E-06   2.34442456920187E-13   0.00000000000000E+00   0.00000000000000E+00
      0.00000000000000E+00  -2.20618767700664E-11  -1.97157322680375E-16   1.45849454876313E-07   1.45827392802386E-07
     -6.20609574500269E-14  -4.50000000000000E+01  -4.50000000000000E+01   0.00000000000000E+00  -6.21927232838305E-07
     -6.26359341740353E-15  -5.42977144281768E-07  -1.16490438338367E-06  -1.72381499470159E-13
      4.84519285649061E-10
      8.00000000000000E-01   8.00000000000000E-01   0.00000000000000E+00  -4.56871569684959E-12   1.01520692869861E-06
     -4.58353163834606E-10   1.01474400681908E-06   2.34458989395114E-13   0.00000000000000E+00   0.00000000000000E+00
      0.00000000000000E+00  -2.28779513904545E-11  -1.97157330181220E-16   1.30990617786837E-07   1.30967739638289E-07
     -6.20562540614310E-14  -4.50000000000000E+01  -4.50000000000000E+01   0.00000000000000E+00  -6.04252892996113E-07
     -6.26407647039602E-15  -5.41458847197179E-07  -1.14571174645737E-06  -1.72402735333684E-13
      5.36476422056556E-10
      8.00000000000000E-01   8.00000000000000E-01   0.00000000000000E+00  -3.69102735621230E-12   1.00966768167802E-06
     -3.23850088120883E-10   1.00934014056254E-06   2.34483634472210E-13   0.00000000000000E+00   0.00000000000000E+00
      0.00000000000000E+00  -2.40953505197472E-11  -1.97157346799876E-16   1.07696502085667E-07   1.07672406537990E-07
     -6.20501821954598E-14  -4.50000000000000E+01  -4.50000000000000E+01   0.00000000000000E+00  -5.78180289171015E-07
     -6.26477514259698E-15  -5.38832251664747E-07  -1.11701254710054E-06  -1.72433452276751E-13
      6.14412126667798E-10
      8.00000000000000E-01   8.00000000000000E-01   0.00000000000000E+00  -2.41394477600757E-12   1.00382328752123E-06
     -1.96509429573840E-10   1.00362436414688E-06   2.34520421535989E-13   0.00000000000000E+00   0.00000000000000E+00
      0.00000000000000E+00  -2.57781850619293E-11  -1.97157385338391E-16   7.05901925320546E-08   7.05644141498353E-08
     -6.20434081959379E-14  -4.50000000000000E+01  -4.50000000000000E+01   0.00000000000000E+00  -5.39746307211920E-07
     -6.26576583610425E-15  -5.34442464819033E-07  -1.07418877829672E-06  -1.72477013340051E-13
      6.72863905126229E-10
      8.00000000000000E-01   8.00000000000000E-01   0.00000000000000E+00  -1.56692155532585E-12   1.00118537483157E-06
     -1.38773895997036E-10   1.00104503401402E-06   2.34547990005376E-13   0.00000000000000E+00   0.00000000000000E+00
      0.00000000000000E+00  -2.68455808601827E-11  -1.97157425569562E-16   4.12379796447419E-08   4.12111338667243E-08
     -6.20402597569104E-14  -4.50000000000000E+01  -4.50000000000000E+01   0.00000000000000E+00  -5.11292115637897E-07
     -6.26646431807548E-15  -5.30964045976381E-07  -1.04225616788074E-06  -1.72507730248466E-13
      7.60541572813876E-10
      8.00000000000000E-01   8.00000000000000E-01   0.00000000000000E+00  -5.42289164661109E-13   9.99495449592500E-07
     -8.59350040916019E-11   9.99408972299243E-07   2.34589516023881E-13   0.00000000000000E+00   0.00000000000000E+00
      0.00000000000000E+00  -2.80896661287903E-11  -1.97157503552634E-16  -4.72754511959061E-09  -4.75563498287690E-09
     -6.20388115781561E-14  -4.50000000000000E+01  -4.50000000000000E+01   0.00000000000000E+00  -4.69021465688759E-07
     -6.26744136523523E-15  -5.25631865360166E-07  -9.94653337316366E-07  -1.72550704445725E-13
      8.92058074345346E-10
      8.00000000000000E-01   8.00000000000000E-01   0.00000000000000E+00   3.99894659114734E-13   1.00052740483158E-06
     -4.68339303286718E-11   1.00048097079591E-06   2.34652584107330E-13   0.00000000000000E+00   0.00000000000000E+00
      0.00000000000000E+00  -2.91238017846600E-11  -1.97157646093016E-16  -7.65609026308744E-08  -7.65900266298167E-08
     -6.20443224034766E-14  -4.50000000000000E+01  -4.50000000000000E+01   0.00000000000000E+00  -4.06329343815028E-07
     -6.26874967147585E-15  -5.17561594082312E-07  -9.23890944166090E-07  -1.72608261703855E-13
      9.90695450493949E-10
      8.00000000000000E-01   8.00000000000000E-01   0.00000000000000E+00   6.02100028218046E-13   1.00279559557848E-06
     -3.30505567191610E-11   1.00276314712179E-06   2.34700704996831E-13   0.00000000000000E+00   0.00000000000000E+00
      0.00000000000000E+00  -2.92040519285553E-11  -1.97157740282733E-16  -1.31427057689461E-07  -1.31456261938547E-07
     -6.20546608650275E-14  -4.50000000000000E+01  -4.50000000000000E+01   0.00000000000000E+00  -3.59790950489372E-07
     -6.26960830545430E-15  -5.11515928424268E-07  -8.71306885183248E-07  -1.72646044131803E-13
      1.06467348260540E-09
      8.00000000000000E-01   8.00000000000000E-01   0.00000000000000E+00   4.13464753989918E-13   1.00451292010701E-06
     -2.67208088018691E-11   1.00448661276296E-06   2.34737305203131E-13   0.00000000000000E+00   0.00000000000000E+00
      0.00000000000000E+00  -2.88073409793707E-11  -1.97157761355754E-16  -1.72319826556453E-07  -1.72348634094590E-07
     -6.20659268809047E-14  -4.50000000000000E+01  -4.50000000000000E+01   0.00000000000000E+00  -3.25138564467878E-07
     -6.27018396964978E-15  -5.06999407930305E-07  -8.32137978668368E-07  -1.72671378322225E-13
      1.17564053077258E-09
      8.00000000000000E-01   8.00000000000000E-01   0.00000000000000E+00  -5.72946323076588E-13   1.00549198098043E-06
     -2.05733806527916E-11   1.00547083465345E-06   2.34792940804338E-13   0.00000000000000E+00   0.00000000000000E+00
      0.00000000000000E+00  -2.72401278712646E-11  -1.97157552913282E-16  -2.31615161975026E-07  -2.31642402300055E-07
     -6.20883463707153E-14  -4.50000000000000E+01  -4.50000000000000E+01   0.00000000000000E+00  -2.73571398654463E-07
     -6.27093865670358E-15  -5.00257027427996E-07  -7.73828432353398E-07  -1.72704594433623E-13
      1.25886581689796E-09
      8.00000000000000E-01   8.00000000000000E-01   0.00000000000000E+00  -2.01774089749550E-12   1.00358296001774E-06
     -1.75431045021670E-11   1.00356339917234E-06   2.34835078984504E-13   0.00000000000000E+00   0.00000000000000E+00
      0.00000000000000E+00  -2.50860061006274E-11  -1.97157005192708E-16  -2.73066291443742E-07  -2.73091377647000E-07
     -6.21093124569885E-14  -4.50000000000000E+01  -4.50000000000000E+01   0.00000000000000E+00  -2.35246326363157E-07
     -6.27141966588191E-15  -4.95225688890757E-07  -7.30472021525334E-07  -1.72725766527515E-13
      1.38370374608604E-09
      8.00000000000000E-01   8.00000000000000E-01   0.00000000000000E+00  -5.62534142094945E-12   9.92721008805338E-07
     -1.43381931254269E-11   9.92701045270792E-07   2.34898259585200E-13   0.00000000000000E+00   0.00000000000000E+00
      0.00000000000000E+00  -1.98250323528650E-11  -1.97154766101814E-16  -3.26513028202708E-07  -3.26532853432216E-07
     -6.21466757732254E-14  -4.50000000000000E+01  -4.50000000000000E+01   0.00000000000000E+00  -1.78447996644767E-07
     -6.27200620922713E-15  -4.87720188921802E-07  -6.66168191838575E-07  -1.72751583811974E-13
      1.47733219297710E-09
      8.00000000000000E-01   8.00000000000000E-01   0.00000000000000E+00  -9.56080057159626E-12   9.75367927581844E-07
     -1.25914635938899E-11   9.75345775317679E-07   2.34944886495282E-13   0.00000000000000E+00   0.00000000000000E+00
      0.00000000000000E+00  -1.41007672355002E-11  -1.97151086977278E-16  -3.56649229974917E-07  -3.56663330939304E-07
     -6.21785589013993E-14  -4.50000000000000E+01  -4.50000000000000E+01   0.00000000000000E+00  -1.36558612904546E-07
     -6.27234120900910E-15  -4.82123825201488E-07  -6.18682444378376E-07  -1.72766327593883E-13
      1.61777486331368E-09
      8.00000000000000E-01   8.00000000000000E-01   0.00000000000000E+00  -1.71232662386465E-11   9.28598346434359E-07
     -1.05758765870336E-11   9.28570647291534E-07   2.35011364473258E-13   0.00000000000000E+00   0.00000000000000E+00
      0.00000000000000E+00  -2.93018849475130E-12  -1.97139398512840E-16  -3.79286874740263E-07  -3.79289805125897E-07
     -6.22301620618184E-14  -4.50000000000000E+01  -4.50000000000000E+01   0.00000000000000E+00  -7.54961646547942E-08
     -6.27267930943245E-15  -4.73784671238161E-07  -5.49280842165635E-07  -1.72781202411438E-13
      1.72310686606612E-09
      8.00000000000000E-01   8.00000000000000E-01   0.00000000000000E+00  -2.34508986523654E-11   8.74516695285553E-07
     -9.38767329151961E-12   8.74483856713609E-07   2.35056607715406E-13   0.00000000000000E+00   0.00000000000000E+00
      0.00000000000000E+00   6.70507897828414E-12  -1.97122969258794E-16  -3.75178026818356E-07  -3.75171321936501E-07
     -6.22697678083836E-14  -4.50000000000000E+01  -4.50000000000000E+01   0.00000000000000E+00  -3.17361977271758E-08
     -6.27280761260575E-15  -4.67576330777125E-07  -4.99312534777108E-07  -1.72786839907021E-13
      1.88110487019478E-09
      8.00000000000000E-01   8.00000000000000E-01   0.00000000000000E+00  -3.18986178152857E-11   7.62939008072664E-07
     -7.94501425005165E-12   7.62899164440599E-07   2.35112717960694E-13   0.00000000000000E+00   0.00000000000000E+00
      0.00000000000000E+00   2.04738697956568E-11  -1.97078536306744E-16  -3.33455936531456E-07  -3.33435462858739E-07
     -6.23257011136055E-14  -4.50000000000000E+01  -4.50000000000000E+01   0.00000000000000E+00   2.88829780594548E-08
     -6.27281215096610E-15  -4.58346673368502E-07  -4.29463701581860E-07  -1.72787016847087E-13
      1.99960337329127E-09
      8.00000000000000E-01   8.00000000000000E-01   0.00000000000000E+00  -3.59873641718212E-11   6.60167709273854E-07
     -7.06420521176013E-12   6.60124657704470E-07   2.35142968504595E-13   0.00000000000000E+00   0.00000000000000E+00
      0.00000000000000E+00   2.82980731427685E-11  -1.97024324028635E-16  -2.77835444117144E-07  -2.77807146241026E-07
     -6.23617877829655E-14  -4.50000000000000E+01  -4.50000000000000E+01   0.00000000000000E+00   6.91796354489847E-08
     -6.27268008152389E-15  -4.51497140639750E-07  -3.82317511463445E-07  -1.72781180721630E-13
      2.17735112793601E-09
      8.00000000000000E-01   8.00000000000000E-01   0.00000000000000E+00  -3.67344882084468E-11   4.94167807226496E-07
     -5.97775093727466E-12   4.94125094987350E-07   2.35165964890182E-13   0.00000000000000E+00   0.00000000000000E+00
      0.00000000000000E+00   3.32606965235295E-11  -1.96900835890518E-16  -1.72184241621606E-07  -1.72150981121983E-07
     -6.24016414347945E-14  -4.50000000000000E+01  -4.50000000000000E+01   0.00000000000000E+00   1.19386267140252E-07
     -6.27229804348901E-15  -4.41360374733319E-07  -3.21974113865365E-07  -1.72764323455388E-13
      2.31066194391957E-09
      8.00000000000000E-01   8.00000000000000E-01   0.00000000000000E+00  -3.32330971913409E-11   3.74842302272419E-07
     -5.30872413403561E-12   3.74803760451093E-07   2.35165366535733E-13   0.00000000000000E+00   0.00000000000000E+00
      0.00000000000000E+00   3.15375631342808E-11  -1.96773471657427E-16  -8.94906869367301E-08  -8.94591495703693E-08
     -6.24189427729667E-14  -4.50000000000000E+01  -4.50000000000000E+01   0.00000000000000E+00   1.48536112961632E-07
     -6.27189216385053E-15  -4.33880717570463E-07  -2.85344610880723E-07  -1.72746423762765E-13
      2.41064505590723E-09
      8.00000000000000E-01   8.00000000000000E-01   0.00000000000000E+00  -2.89969868317392E-11   2.95407128477698E-07
     -4.87145460410277E-12   2.95373260036262E-07   2.35155684578121E-13   0.00000000000000E+00   0.00000000000000E+00
      0.00000000000000E+00   2.78844230692510E-11  -1.96660130132159E-16  -3.28720673234655E-08  -3.28441830970564E-08
     -6.24249916626856E-14  -4.50000000000000E+01  -4.50000000000000E+01   0.00000000000000E+00   1.65818721803810E-07
     -6.27153537726993E-15  -4.28347792471480E-07  -2.62529076939205E-07  -1.72730692915433E-13
      2.56061972388873E-09
      8.00000000000000E-01   8.00000000000000E-01   0.00000000000000E+00  -2.16451151431746E-11   1.98470849959460E-07
     -4.29831605734943E-12   1.98444906528259E-07   2.35128920797780E-13   0.00000000000000E+00   0.00000000000000E+00
      0.00000000000000E+00   2.05481623727777E-11  -1.96469168924789E-16   3.62585256357453E-08   3.62790736016489E-08
     -6.24246121239410E-14  -4.50000000000000E+01  -4.50000000000000E+01   0.00000000000000E+00   1.85452696509871E-07
     -6.27093684411673E-15  -4.20176670368842E-07  -2.34723980129908E-07  -1.72704308673841E-13
      2.67310072487486E-09
      8.00000000000000E-01   8.00000000000000E-01   0.00000000000000E+00  -1.62906611998039E-11   1.44056563941066E-07
     -3.92245375537230E-12   1.44036350826111E-07   2.35101242496039E-13   0.00000000000000E+00   0.00000000000000E+00
      0.00000000000000E+00   1.47939872676586E-11  -1.96316349729803E-16   7.39393164323986E-08   7.39541102233499E-08
     -6.24184093155938E-14  -4.50000000000000E+01  -4.50000000000000E+01   0.00000000000000E+00   1.96153402101411E-07
     -6.27044957911401E-15  -4.14143856880423E-07  -2.17990461049461E-07  -1.72682833180444E-13
      2.84182222635405E-09
      8.00000000000000E-01   8.00000000000000E-01   0.00000000000000E+00  -9.76704903728617E-12   8.82034846570740E-08
     -3.42684378320829E-12   8.81902907642535E-08   2.35051654388904E-13   0.00000000000000E+00   0.00000000000000E+00
      0.00000000000000E+00   7.49728763933598E-12  -1.96087155383917E-16   1.09285128704043E-07   1.09292625795595E-07
     -6.24029234893611E-14  -4.50000000000000E+01  -4.50000000000000E+01   0.00000000000000E+00   2.07720472990664E-07
     -6.26967568639406E-15  -4.05203383280837E-07  -1.97482916559848E-07  -1.72648730899543E-13
      2.96836335246344E-09
      8.00000000000000E-01   8.00000000000000E-01   0.00000000000000E+00  -6.30585749828426E-12   6.22663274354667E-08
     -3.09972578474861E-12   6.22569218521837E-08   2.35010398028780E-13   0.00000000000000E+00   0.00000000000000E+00
      0.00000000000000E+00   3.50301590015035E-12  -1.95924216774437E-16   1.22298567231239E-07   1.22302070051215E-07
     -6.23883555030655E-14  -4.50000000000000E+01  -4.50000000000000E+01   0.00000000000000E+00   2.13961605360985E-07
     -6.26906993757719E-15  -3.98520590995314E-07  -1.84558991903398E-07  -1.72622042525715E-13
      3.15817504162752E-09
      8.00000000000000E-01   8.00000000000000E-01   0.00000000000000E+00  -3.11432825309303E-12   3.96224426805081E-08
     -2.66692877757507E-12   3.96166614234775E-08   2.34945507088019E-13   0.00000000000000E+00   0.00000000000000E+00
      0.00000000000000E+00  -2.50117052375048E-13  -1.95706982030319E-16   1.27712824082206E-07   1.27712573769447E-07
     -6.23647605994856E-14  -4.50000000000000E+01  -4.50000000000000E+01   0.00000000000000E+00   2.20971627822071E-07
     -6.26813248103335E-15  -3.88300856746863E-07  -1.67329235192924E-07  -1.72580746488533E-13
      3.30053380850059E-09
      8.00000000000000E-01   8.00000000000000E-01   0.00000000000000E+00  -1.85306178574383E-12   3.05402205559071E-08
     -2.38165536638689E-12   3.05359858387550E-08   2.34895961758394E-13   0.00000000000000E+00   0.00000000000000E+00
      0.00000000000000E+00  -1.75060103350279E-12  -1.95569139450930E-16   1.24848574245273E-07   1.24846823448670E-07
     -6.23469562504800E-14  -4.50000000000000E+01  -4.50000000000000E+01   0.00000000000000E+00   2.24869714280564E-07
     -6.26741181538180E-15  -3.80252517300578E-07  -1.55382809287426E-07  -1.72549005507914E-13
      3.51407195881018E-09
      8.00000000000000E-01   8.00000000000000E-01   0.00000000000000E+00  -9.40410000424214E-13   2.29040624664507E-08
     -2.00744398425935E-12   2.29011146124660E-08   2.34822143978780E-13   0.00000000000000E+00   0.00000000000000E+00
      0.00000000000000E+00  -2.80945947551249E-12  -1.95402297951008E-16   1.15349455306831E-07   1.15346645651953E-07
     -6.23215878333645E-14  -4.50000000000000E+01  -4.50000000000000E+01   0.00000000000000E+00   2.28679814816040E-07
     -6.26631161835629E-15  -3.66927568814147E-07  -1.38247760264419E-07  -1.72500556145416E-13
      3.67422557154238E-09
      8.00000000000000E-01   8.00000000000000E-01   0.00000000000000E+00  -6.58701836824955E-13   1.95443605108302E-08
     -1.76433404283322E-12   1.95419374749505E-08   2.34767922505670E-13   0.00000000000000E+00   0.00000000000000E+00
      0.00000000000000E+00  -3.08435601484015E-12  -1.95304927761730E-16   1.06296521656585E-07   1.06293437105266E-07
     -6.23040794383568E-14  -4.50000000000000E+01  -4.50000000000000E+01   0.00000000000000E+00   2.29631036983439E-07
     -6.26547780217042E-15  -3.55466405298177E-07  -1.25835374580216E-07  -1.72463843067313E-13
      3.91445599064068E-09
      8.00000000000000E-01   8.00000000000000E-01   0.00000000000000E+00  -4.73271951329775E-13   1.59628866500168E-08
     -1.45158187401365E-12   1.59609617961915E-08   2.34689577719702E-13   0.00000000000000E+00   0.00000000000000E+00
      0.00000000000000E+00  -3.14764646080179E-12  -1.95193841770627E-16   9.19494309835662E-08   9.19462831419116E-08
     -6.22806451300746E-14  -4.50000000000000E+01  -4.50000000000000E+01   0.00000000000000E+00   2.27058406241154E-07
     -6.26423050289278E-15  -3.34965644915026E-07  -1.07907244938103E-07  -1.72408932589626E-13
      4.09462880496440E-09
      8.00000000000000E-01   8.00000000000000E-01   0.00000000000000E+00  -4.03809807160176E-13   1.38433341572919E-08
     -1.25300187642554E-12   1.38416773456083E-08   2.34633836591086E-13   0.00000000000000E+00   0.00000000000000E+00
      0.00000000000000E+00  -3.04977244662817E-12  -1.95132340190920E-16   8.12819512298174E-08   8.12789012622385E-08
     -6.22653335599438E-14  -4.50000000000000E+01  -4.50000000000000E+01   0.00000000000000E+00   2.21435793801566E-07
     -6.26331199906376E-15  -3.16556366146101E-07  -9.51205786078469E-08  -1.72368503031142E-13
      4.22975841570719E-09
      8.00000000000000E-01   8.00000000000000E-01   0.00000000000000E+00  -3.74447239152572E-13   1.24284639560349E-08
     -1.12173050275820E-12   1.24269677782930E-08   2.34594100751695E-13   0.00000000000000E+00   0.00000000000000E+00