DF-ISE text

Info {
  version   = 1.0
  type      = xyplot
  datasets  = [
    "time"
    "Ntop OuterVoltage" "Ntop InnerVoltage" "Ntop QuasiFermiPotential" "Ntop DisplacementCurrent" "Ntop eCurrent"
    "Ntop hCurrent" "Ntop TotalCurrent" "Ntop Charge" "Ptop OuterVoltage" "Ptop InnerVoltage"
    "Ptop QuasiFermiPotential" "Ptop DisplacementCurrent" "Ptop eCurrent" "Ptop hCurrent" "Ptop TotalCurrent"
    "Ptop Charge" "Pbot OuterVoltage" "Pbot InnerVoltage" "Pbot QuasiFermiPotential" "Pbot DisplacementCurrent"
    "Pbot eCurrent" "Pbot hCurrent" "Pbot TotalCurrent" "Pbot Charge" ]
  functions = [
    Time
    OuterVoltage InnerVoltage QuasiFermiPotential DisplacementCurrent eCurrent
    hCurrent TotalCurrent Charge OuterVoltage InnerVoltage
    QuasiFermiPotential DisplacementCurrent eCurrent hCurrent TotalCurrent
    Charge OuterVoltage InnerVoltage QuasiFermiPotential DisplacementCurrent
    eCurrent hCurrent TotalCurrent Charge ]
}

Data {
      5.00000000000000E-13
      8.00000000000000E-01   8.00000000000000E-01   0.00000000000000E+00  -2.40307950962516E-16   1.34667328399506E-13
      2.07550748849528E-17   1.34447775523429E-13   1.71125512918690E-13   0.00000000000000E+00   0.00000000000000E+00
      0.00000000000000E+00  -1.11139030253413E-13  -1.96764837724274E-16   1.63218306860863E-07   1.63218195525068E-07
     -4.72119673857704E-14  -1.70000000000000E+01  -1.70000000000000E+01   0.00000000000000E+00  -2.87344913805557E-13
      1.31654686901327E-11  -1.63231208096621E-07  -1.63218329972845E-07  -1.23913545532920E-13
      1.25000000000000E-12
      8.00000000000000E-01   8.00000000000000E-01   0.00000000000000E+00   1.71702655022718E-14   3.02681495197024E-13
      2.07550084690032E-17   3.19872515707765E-13   1.71125512918014E-13   0.00000000000000E+00   0.00000000000000E+00
      0.00000000000000E+00   2.34813022439224E-14  -1.96764837737311E-16   1.63219919089583E-07   1.63219942374120E-07
     -4.72119673843766E-14  -1.70000000000000E+01  -1.70000000000000E+01   0.00000000000000E+00  -1.71187344581031E-12
      6.07542660178380E-11  -1.63279304639208E-07  -1.63220262246636E-07  -1.23913545533638E-13
      2.37500000000000E-12
      8.00000000000000E-01   8.00000000000000E-01   0.00000000000000E+00   8.45916476458399E-14   2.26031773631729E-12
      2.07550690932813E-17   2.34493013903222E-12   1.71125512907923E-13   0.00000000000000E+00   0.00000000000000E+00
      0.00000000000000E+00   1.53400531479712E-12  -1.96764837609902E-16   1.63239414830990E-07   1.63240948639540E-07
     -4.72119673635652E-14  -1.70000000000000E+01  -1.70000000000000E+01   0.00000000000000E+00  -1.87353522681863E-11
      5.02561716817256E-10  -1.63727119934229E-07  -1.63243293569680E-07  -1.23913545544359E-13
      4.06250000000000E-12
      8.00000000000000E-01   8.00000000000000E-01   0.00000000000000E+00   1.14189613876050E-12   4.27419971605404E-11
      2.07550714780879E-17   4.38839140543724E-11   1.71125512603969E-13   0.00000000000000E+00   0.00000000000000E+00
      0.00000000000000E+00   2.26823366819117E-11  -1.96764836274132E-16   1.63688921938402E-07   1.63711604078319E-07
     -4.72119667366878E-14  -1.70000000000000E+01  -1.70000000000000E+01   0.00000000000000E+00  -3.98011700234020E-10
      7.61998929381702E-09  -1.70977465585956E-07  -1.63755487992373E-07  -1.23913545867283E-13
      6.59375000000000E-12
      8.00000000000000E-01   8.00000000000000E-01   0.00000000000000E+00   2.05194091567873E-11   1.14774103907739E-09
      2.07551377993982E-17   1.16826046898932E-09   1.71125499347539E-13   0.00000000000000E+00   0.00000000000000E+00
      0.00000000000000E+00   4.60642548185299E-10  -1.96764833664303E-16   1.77466195496028E-07   1.77926837847449E-07
     -4.72119393876453E-14  -1.70000000000000E+01  -1.70000000000000E+01   0.00000000000000E+00  -1.17778502436094E-08
      1.52359740691102E-07  -3.19676988763930E-07  -1.79095098316438E-07  -1.23913559959895E-13
      1.03906250000000E-11
      8.00000000000000E-01   8.00000000000000E-01   0.00000000000000E+00   1.54830479714894E-10   1.40011230615570E-08
      2.07562983284885E-17   1.41559535620282E-08   1.71125214857140E-13   0.00000000000000E+00   0.00000000000000E+00
      0.00000000000000E+00   3.87524561859613E-09  -1.96764503927297E-16   3.61139887683340E-07   3.65015133105171E-07
     -4.72113507970583E-14  -1.70000000000000E+01  -1.70000000000000E+01   0.00000000000000E+00  -1.60443864947823E-07
      1.26595473709529E-06  -1.48468195881467E-06  -3.79171086667199E-07  -1.23913864060082E-13
      1.60859375000000E-11
      8.00000000000000E-01   8.00000000000000E-01   0.00000000000000E+00   6.49047411723095E-11   2.78374749306357E-08
      2.07558499480115E-17   2.79023796925639E-08   1.71123736802778E-13   0.00000000000000E+00   0.00000000000000E+00
      0.00000000000000E+00   2.09419567863581E-09  -1.96763361175111E-16   6.59110496360109E-07   6.61204691841981E-07
     -4.72082759577403E-14  -1.70000000000000E+01  -1.70000000000000E+01   0.00000000000000E+00  -3.90701680326238E-07
      6.67071123190353E-07  -9.65476514398659E-07  -6.89107071534544E-07  -1.23915460845037E-13
      2.46289062500000E-11
      8.00000000000000E-01   8.00000000000000E-01   0.00000000000000E+00  -4.20097595416381E-12   3.09702140040810E-08
      2.07553534812238E-17   3.09660130488822E-08   1.71120285909516E-13   0.00000000000000E+00   0.00000000000000E+00
      0.00000000000000E+00   1.84982243702037E-11  -1.96762992382980E-16   7.87622393388139E-07   7.87640891415746E-07
     -4.72010231336390E-14  -1.70000000000000E+01  -1.70000000000000E+01   0.00000000000000E+00  -4.82857446216603E-07
      1.23607145989123E-09  -3.36985529707914E-07  -8.18606904464626E-07  -1.23919262775877E-13
      3.74433593750000E-11
      8.00000000000000E-01   8.00000000000000E-01   0.00000000000000E+00  -4.95567139608564E-13   3.01858889033117E-08
      2.07549185776586E-17   3.01853933569270E-08   1.71114877948441E-13   0.00000000000000E+00   0.00000000000000E+00
      0.00000000000000E+00  -8.62792531412560E-12  -1.96759678999146E-16   7.88551909189861E-07   7.88543281067787E-07
     -4.71894825706448E-14  -1.70000000000000E+01  -1.70000000000000E+01   0.00000000000000E+00  -4.73926151720251E-07
     -5.01744988580397E-15  -3.44802517687011E-07  -8.18728674424712E-07  -1.23925395377797E-13
      5.66650390625000E-11
      8.00000000000000E-01   8.00000000000000E-01   0.00000000000000E+00  -1.51409487636473E-12   2.95810090859079E-08
      2.07549759327844E-17   2.95794950117865E-08   1.71107239754735E-13   0.00000000000000E+00   0.00000000000000E+00
      0.00000000000000E+00  -1.38603587294441E-11  -1.96666766658774E-16   7.84047475816285E-07   7.84033615260889E-07
     -4.71728929769047E-14  -1.70000000000000E+01  -1.70000000000000E+01   0.00000000000000E+00  -4.57452969358151E-07
     -5.01787712685718E-15  -3.56160135896648E-07  -8.13613110272676E-07  -1.23934346777830E-13
      8.54975585937500E-11
      8.00000000000000E-01   8.00000000000000E-01   0.00000000000000E+00  -1.65356708062218E-12   2.82985942481832E-08
      2.07551391910920E-17   2.82969407018577E-08   1.71096625615074E-13   0.00000000000000E+00   0.00000000000000E+00
      0.00000000000000E+00  -1.91254918096010E-11  -1.94710850966606E-16   7.74479711976742E-07   7.74460586290221E-07
     -4.71494424385267E-14  -1.70000000000000E+01  -1.70000000000000E+01   0.00000000000000E+00  -4.33043803375093E-07
     -5.01829888928997E-15  -3.69713718598688E-07  -8.02757526992081E-07  -1.23947183176547E-13
      1.28746337890625E-10
      8.00000000000000E-01   8.00000000000000E-01   0.00000000000000E+00  -1.46128846620653E-12   2.64357418348671E-08
      2.07550734522245E-17   2.64342805671560E-08   1.71082101295339E-13   0.00000000000000E+00   0.00000000000000E+00
      0.00000000000000E+00  -2.17973498158773E-11  -1.62367114846630E-16   7.57231996830403E-07   7.57210199318220E-07
     -4.71169288140055E-14  -1.70000000000000E+01  -1.70000000000000E+01   0.00000000000000E+00  -3.99192413061811E-07
     -5.01885189882453E-15  -3.84452061804711E-07  -7.83644479885374E-07  -1.23965172481333E-13
      1.93619506835937E-10
      8.00000000000000E-01   8.00000000000000E-01   0.00000000000000E+00  -8.14015475599631E-13   2.44219465018281E-08
      2.07549502392810E-17   2.44211325071074E-08   1.71062530228580E-13   0.00000000000000E+00   0.00000000000000E+00
      0.00000000000000E+00  -2.37399031316745E-11   2.27764772016961E-16   7.28855416057107E-07   7.28831676381740E-07
     -4.70729094812147E-14  -1.70000000000000E+01  -1.70000000000000E+01   0.00000000000000E+00  -3.55125876709737E-07
     -5.01958656640860E-15  -3.98126927159525E-07  -7.53252808888850E-07  -1.23989620747366E-13
      2.42274383544922E-10
      8.00000000000000E-01   8.00000000000000E-01   0.00000000000000E+00  -8.83346303835759E-14   2.38560889680639E-08
      2.07550643656061E-17   2.38560006541885E-08   1.71049183346643E-13   0.00000000000000E+00   0.00000000000000E+00
      0.00000000000000E+00  -2.52392752063609E-11   1.21139419000429E-15   7.06110823356295E-07   7.06085585292483E-07
     -4.70429976180112E-14  -1.70000000000000E+01  -1.70000000000000E+01   0.00000000000000E+00  -3.26001680915450E-07
     -5.02008314054217E-15  -4.03939900011137E-07  -7.29941585946670E-07  -1.24006185728631E-13
      3.15256698608398E-10
      8.00000000000000E-01   8.00000000000000E-01   0.00000000000000E+00   1.49848074204302E-12   2.53492030548039E-08
      2.07551993114562E-17   2.53507015563012E-08   1.71030881389928E-13   0.00000000000000E+00   0.00000000000000E+00
      0.00000000000000E+00  -2.81164155517141E-11   4.99750653983497E-15   6.69072651696158E-07   6.69044540278113E-07
     -4.70023751230794E-14  -1.70000000000000E+01  -1.70000000000000E+01   0.00000000000000E+00  -2.85947752424857E-07
     -5.02075357819277E-15  -4.08447484388804E-07  -6.94395241834415E-07  -1.24028506266847E-13
      3.69993434906006E-10
      8.00000000000000E-01   8.00000000000000E-01   0.00000000000000E+00   3.09815567541861E-12   2.89527137549875E-08
      2.07551637582440E-17   2.89558119314181E-08   1.71018370578654E-13   0.00000000000000E+00   0.00000000000000E+00
      0.00000000000000E+00  -3.07033941026812E-11   1.03916696368706E-14   6.38502083593887E-07   6.38471390591454E-07
     -4.69749872423145E-14  -1.70000000000000E+01  -1.70000000000000E+01   0.00000000000000E+00  -2.57736692507854E-07
     -5.02120114351586E-15  -4.09690504993816E-07  -6.67427202522872E-07  -1.24043383336340E-13
      4.11045987129211E-10
      8.00000000000000E-01   8.00000000000000E-01   0.00000000000000E+00   4.49701699423710E-12   3.34096959967018E-08
      2.07550847644558E-17   3.34141930344511E-08   1.71009628250635E-13   0.00000000000000E+00   0.00000000000000E+00
      0.00000000000000E+00  -3.28313384252828E-11   1.61630927029169E-14   6.13762446251415E-07   6.13729631076082E-07
     -4.69560852303745E-14  -1.70000000000000E+01  -1.70000000000000E+01   0.00000000000000E+00  -2.37266330259144E-07
     -5.02150696752545E-15  -4.09877488829880E-07  -6.47143824110531E-07  -1.24053543020261E-13
      4.72624815464020E-10
      8.00000000000000E-01   8.00000000000000E-01   0.00000000000000E+00   6.78067566408417E-12   4.33236532987083E-08
      2.07551770261830E-17   4.33304339951275E-08   1.70997537547609E-13   0.00000000000000E+00   0.00000000000000E+00
      0.00000000000000E+00  -3.61397954537439E-11   2.77342882906440E-14   5.73525055381946E-07   5.73488943320781E-07
     -4.69303050846302E-14  -1.70000000000000E+01  -1.70000000000000E+01   0.00000000000000E+00  -2.07431810454072E-07
     -5.02191911539390E-15  -4.09387561839915E-07  -6.16819377315906E-07  -1.24067232462979E-13
      5.18808936715126E-10
      8.00000000000000E-01   8.00000000000000E-01   0.00000000000000E+00   8.50967932035576E-12   5.34134621604269E-08
      2.07552184575185E-17   5.34219718605025E-08   1.70989297821257E-13   0.00000000000000E+00   0.00000000000000E+00
      0.00000000000000E+00  -3.85357779068926E-11   3.86605700960794E-14   5.40888602784638E-07   5.40850105667301E-07
     -4.69129887942821E-14  -1.70000000000000E+01  -1.70000000000000E+01   0.00000000000000E+00  -1.85671333262674E-07
     -5.02219236596629E-15  -4.08600739242937E-07  -5.94272077527803E-07  -1.24076309026974E-13
      5.88085118591785E-10
      8.00000000000000E-01   8.00000000000000E-01   0.00000000000000E+00   1.08237060868333E-11   7.25930020606601E-08
      2.07553786426743E-17   7.26038257875024E-08   1.70978355404661E-13   0.00000000000000E+00   0.00000000000000E+00
      0.00000000000000E+00  -4.15566187232033E-11   5.83694084090559E-14   4.88419975327644E-07   4.88378477078329E-07
     -4.68902851714620E-14  -1.70000000000000E+01  -1.70000000000000E+01   0.00000000000000E+00  -1.53971186031751E-07
     -5.02254633510682E-15  -4.07011111811534E-07  -5.60982302865831E-07  -1.24088070233199E-13
      6.91999391406774E-10
      8.00000000000000E-01   8.00000000000000E-01   0.00000000000000E+00   1.30145099110403E-11   1.08237234068120E-07
      2.07555051257175E-17   1.08250248598786E-07   1.70965366236711E-13   0.00000000000000E+00   0.00000000000000E+00
      0.00000000000000E+00  -4.38100824903855E-11   9.42501713962696E-14   4.04526232407325E-07   4.04482516575006E-07
     -4.68636643487192E-14  -1.70000000000000E+01  -1.70000000000000E+01   0.00000000000000E+00  -1.08632848292798E-07
     -5.02295636064374E-15  -4.04099911858038E-07  -5.12732765173791E-07  -1.24101701887991E-13
      7.69935096018016E-10
      8.00000000000000E-01   8.00000000000000E-01   0.00000000000000E+00   1.33833850958851E-11   1.37739948298072E-07
      2.07556764519368E-17   1.37753331703923E-07   1.70958427543623E-13   0.00000000000000E+00   0.00000000000000E+00
      0.00000000000000E+00  -4.32779581284526E-11   1.25035572550142E-13   3.40565501899297E-07   3.40522348976741E-07
     -4.68495145313181E-14  -1.70000000000000E+01  -1.70000000000000E+01   0.00000000000000E+00  -7.65798362479743E-08
     -5.02317312060068E-15  -4.01695839409517E-07  -4.78275680680664E-07  -1.24108913012305E-13
      8.86838652934879E-10
      8.00000000000000E-01   8.00000000000000E-01   0.00000000000000E+00   1.20688979512210E-11   1.80462683408656E-07
      2.07556617290911E-17   1.80474752327362E-07   1.70952361431468E-13   0.00000000000000E+00   0.00000000000000E+00
      0.00000000000000E+00  -3.90809523015521E-11   1.74819413235959E-13   2.49907724871754E-07   2.49868818738866E-07
     -4.68371043394763E-14  -1.70000000000000E+01  -1.70000000000000E+01   0.00000000000000E+00  -3.24060799738956E-08
     -5.02336374329308E-15  -3.97937486068969E-07  -4.30343571066228E-07  -1.24115257091991E-13
      9.74516320622526E-10
      8.00000000000000E-01   8.00000000000000E-01   0.00000000000000E+00   1.00347869023488E-11   2.08109413195540E-07
      2.07558943318490E-17   2.08119448003198E-07   1.70950850081907E-13   0.00000000000000E+00   0.00000000000000E+00
      0.00000000000000E+00  -3.39111531918530E-11   2.13112199850258E-13   1.89949112858333E-07   1.89915414817341E-07
     -4.68340548990392E-14  -1.70000000000000E+01  -1.70000000000000E+01   0.00000000000000E+00  -2.98486779076016E-09
     -5.02341000027397E-15  -3.95049990006369E-07  -3.98034862820540E-07  -1.24116795182868E-13
