DF-ISE text

Info {
  version   = 1.0
  type      = xyplot
  datasets  = [
    "time"
    "Ntop OuterVoltage" "Ntop InnerVoltage" "Ntop QuasiFermiPotential" "Ntop DisplacementCurrent" "Ntop eCurrent"
    "Ntop hCurrent" "Ntop TotalCurrent" "Ntop Charge" "Ptop OuterVoltage" "Ptop InnerVoltage"
    "Ptop QuasiFermiPotential" "Ptop DisplacementCurrent" "Ptop eCurrent" "Ptop hCurrent" "Ptop TotalCurrent"
    "Ptop Charge" "Pbot OuterVoltage" "Pbot InnerVoltage" "Pbot QuasiFermiPotential" "Pbot DisplacementCurrent"
    "Pbot eCurrent" "Pbot hCurrent" "Pbot TotalCurrent" "Pbot Charge" ]
  functions = [
    Time
    OuterVoltage InnerVoltage QuasiFermiPotential DisplacementCurrent eCurrent
    hCurrent TotalCurrent Charge OuterVoltage InnerVoltage
    QuasiFermiPotential DisplacementCurrent eCurrent hCurrent TotalCurrent
    Charge OuterVoltage InnerVoltage QuasiFermiPotential DisplacementCurrent
    eCurrent hCurrent TotalCurrent Charge ]
}

Data {
      5.00000000000000E-13
      8.00000000000000E-01   8.00000000000000E-01   0.00000000000000E+00   1.24442519754421E-14   1.85559342661082E-11
     -1.75921798588933E-11   9.76198659190333E-13   2.32745367027532E-13   0.00000000000000E+00   0.00000000000000E+00
      0.00000000000000E+00  -1.06176718955510E-13  -1.97181352814387E-16   2.03358175036518E-11   2.02294436033435E-11
     -7.40436337747533E-14  -4.00000000000000E+01  -4.00000000000000E+01   0.00000000000000E+00  -9.48720069202619E-13
      3.50925479476823E-11  -5.53494701410135E-11  -2.12056422625338E-11  -1.58701733252779E-13
      1.25000000000000E-12
      8.00000000000000E-01   8.00000000000000E-01   0.00000000000000E+00   2.25656525236284E-13   8.50930456938339E-11
     -8.11756154846608E-11   4.14308673440940E-12   2.32745367028315E-13   0.00000000000000E+00   0.00000000000000E+00
      0.00000000000000E+00   1.49638143144326E-13  -1.97181352808846E-16   2.30906375453763E-11   2.32400785071678E-11
     -7.40436337732415E-14  -4.00000000000000E+01  -4.00000000000000E+01   0.00000000000000E+00  -5.48058399347938E-12
      1.61913602644390E-10  -1.83816183892488E-10  -2.73831652415772E-11  -1.58701733255075E-13
      2.37500000000000E-12
      8.00000000000000E-01   8.00000000000000E-01   0.00000000000000E+00   1.74294918704025E-12   7.11329670012699E-10
     -6.71654941555760E-10   4.14176776439796E-11   2.32745367039708E-13   0.00000000000000E+00   0.00000000000000E+00
      0.00000000000000E+00   2.56468016432365E-12  -1.97181352741158E-16   5.67205640091011E-11   5.92850469920720E-11
     -7.40436337505675E-14  -4.00000000000000E+01  -4.00000000000000E+01   0.00000000000000E+00  -5.93255122380283E-11
      1.33930177022948E-09  -1.38067898262751E-09  -1.00702724636053E-10  -1.58701733289140E-13
      4.06250000000000E-12
      8.00000000000000E-01   8.00000000000000E-01   0.00000000000000E+00   2.61515502748190E-11   1.10202817694979E-08
     -1.01891607334415E-08   8.57272586331215E-10   2.32745367372490E-13   0.00000000000000E+00   0.00000000000000E+00
      0.00000000000000E+00   3.85654755094678E-11  -1.97181351186273E-16   8.28380880920054E-10   8.66946159248171E-10
     -7.40436330637437E-14  -4.00000000000000E+01  -4.00000000000000E+01   0.00000000000000E+00  -1.25188024565189E-09
      2.03067840923142E-08  -2.07791225922417E-08  -1.72421874557938E-09  -1.58701734308746E-13
      6.59375000000000E-12
      8.00000000000000E-01   8.00000000000000E-01   0.00000000000000E+00   5.18974800532366E-10   2.28306256664148E-07
     -2.03909582809677E-07   2.49156486550037E-08   2.32745381446217E-13   0.00000000000000E+00   0.00000000000000E+00
      0.00000000000000E+00   7.80073992649241E-10  -1.97181303590797E-16   2.44182705689654E-08   2.51983443644333E-08
     -7.40436029478868E-14  -4.00000000000000E+01  -4.00000000000000E+01   0.00000000000000E+00  -3.67969252629987E-08
      4.06028822880957E-07  -4.19345890637396E-07  -5.01139930194370E-08  -1.58701778498331E-13
      1.03906250000000E-11
      8.00000000000000E-01   8.00000000000000E-01   0.00000000000000E+00   4.32877894826178E-09   2.02836276438860E-06
     -1.69718650468635E-06   3.35505038650516E-07   2.32745677890862E-13   0.00000000000000E+00   0.00000000000000E+00
      0.00000000000000E+00   6.47571104184932E-09  -1.97180674720440E-16   3.35588822173909E-07   3.42064533018578E-07
     -7.40429539977105E-14  -4.00000000000000E+01  -4.00000000000000E+01   0.00000000000000E+00  -4.97231671330287E-07
      3.37368717693487E-06  -3.55402507727368E-06  -6.77569571669093E-07  -1.58702723893151E-13
      1.60859375000000E-11
      8.00000000000000E-01   8.00000000000000E-01   0.00000000000000E+00   2.53375516770555E-09   1.72757259448653E-06
     -9.08201059009782E-07   8.21905290644452E-07   2.32747221606219E-13   0.00000000000000E+00   0.00000000000000E+00
      0.00000000000000E+00   3.08523897368860E-09  -1.97179711925293E-16   8.09028487202217E-07   8.12113725978726E-07
     -7.40396015810221E-14  -4.00000000000000E+01  -4.00000000000000E+01   0.00000000000000E+00  -1.19230738177517E-06
      1.77770123442390E-06  -2.21941286927191E-06  -1.63401901662318E-06  -1.58707620025197E-13
      2.46289062500000E-11
      8.00000000000000E-01   8.00000000000000E-01   0.00000000000000E+00   3.70628336684126E-10   1.10135721759572E-06
     -2.26925607360792E-08   1.07903528519632E-06   2.32751080779161E-13   0.00000000000000E+00   0.00000000000000E+00
      0.00000000000000E+00  -4.54341073818746E-10  -1.97179420019005E-16   9.47171139224683E-07   9.46716797953685E-07
     -7.40319388412365E-14  -4.00000000000000E+01  -4.00000000000000E+01   0.00000000000000E+00  -1.45588448058339E-06
      3.29405760436552E-09  -5.73161660170985E-07  -2.02575208315001E-06  -1.58719141937924E-13
      3.74433593750000E-11
      8.00000000000000E-01   8.00000000000000E-01   0.00000000000000E+00   2.78087602849531E-10   1.19572762183812E-06
     -1.91452137604954E-08   1.17686049568048E-06   2.32758007928750E-13   0.00000000000000E+00   0.00000000000000E+00
      0.00000000000000E+00  -3.53827122931469E-10  -1.97179597117111E-16   8.51034165886249E-07   8.50680338566138E-07
     -7.40204370748077E-14  -4.00000000000000E+01  -4.00000000000000E+01   0.00000000000000E+00  -1.42034168316239E-06
     -5.94272321177799E-15  -6.07199145141505E-07  -2.02754083424662E-06  -1.58737570853942E-13
      5.66650390625000E-11
      8.00000000000000E-01   8.00000000000000E-01   0.00000000000000E+00   1.95510439934263E-10   1.29866367139220E-06
     -1.65951318811519E-08   1.28226404995098E-06   2.32769575994568E-13   0.00000000000000E+00   0.00000000000000E+00
      0.00000000000000E+00  -2.60626916110490E-10  -1.97179800316448E-16   7.39571824884480E-07   7.39311197771190E-07
     -7.40051902839780E-14  -4.00000000000000E+01  -4.00000000000000E+01   0.00000000000000E+00  -1.37029929176236E-06
     -5.94360665026833E-15  -6.51275950016194E-07  -2.02157524772217E-06  -1.58764385710590E-13
      8.54975585937500E-11
      8.00000000000000E-01   8.00000000000000E-01   0.00000000000000E+00   1.20974834123416E-10   1.39866539515281E-06
     -1.33854505048175E-08   1.38540091948212E-06   2.32788601786879E-13   0.00000000000000E+00   0.00000000000000E+00
      0.00000000000000E+00  -1.75004491620906E-10  -1.97180012079651E-16   6.21590348805450E-07   6.21415344116649E-07
     -7.39856418769888E-14  -4.00000000000000E+01  -4.00000000000000E+01   0.00000000000000E+00  -1.30644474787922E-06
     -5.94453145743136E-15  -7.00371509775013E-07  -2.00681626359876E-06  -1.58802959909889E-13
      1.28746337890625E-10
      8.00000000000000E-01   8.00000000000000E-01   0.00000000000000E+00   6.00201364136194E-11   1.48037051890673E-06
     -9.68796823350583E-09   1.47074257080964E-06   2.32819098203518E-13   0.00000000000000E+00   0.00000000000000E+00
      0.00000000000000E+00  -1.04256070241025E-10  -1.97180211513687E-16   5.08548214899986E-07   5.08443958632565E-07
     -7.39613325171284E-14  -4.00000000000000E+01  -4.00000000000000E+01   0.00000000000000E+00  -1.22962111091982E-06
     -5.94585082920555E-15  -7.49565412576530E-07  -1.97918652944220E-06  -1.58857765686390E-13
      1.93619506835937E-10
      8.00000000000000E-01   8.00000000000000E-01   0.00000000000000E+00   1.73488694225596E-11   1.52666614741029E-06
     -5.95703382687231E-09   1.52072646245284E-06   2.32866302429364E-13   0.00000000000000E+00   0.00000000000000E+00
      0.00000000000000E+00  -5.55465801110606E-11  -1.97180378792404E-16   4.12282285873550E-07   4.12226739096258E-07
     -7.39316545304611E-14  -4.00000000000000E+01  -4.00000000000000E+01   0.00000000000000E+00  -1.14280276691445E-06
     -5.94770855877250E-15  -7.90150428686931E-07  -1.93295320154909E-06  -1.58934647898903E-13
      2.42274383544922E-10
      8.00000000000000E-01   8.00000000000000E-01   0.00000000000000E+00   3.66121691168182E-12   1.53259922761958E-06
     -4.15289918525666E-09   1.52844998965123E-06   2.32901712134191E-13   0.00000000000000E+00   0.00000000000000E+00
      0.00000000000000E+00  -4.06347237614508E-11  -1.97180456028652E-16   3.68126704942722E-07   3.68086070021780E-07
     -7.39127200979553E-14  -4.00000000000000E+01  -4.00000000000000E+01   0.00000000000000E+00  -1.09175953714992E-06
     -5.94902449728464E-15  -8.04776516574067E-07  -1.89653605967301E-06  -1.58988992036237E-13
      2.78765541076660E-10
      8.00000000000000E-01   8.00000000000000E-01   0.00000000000000E+00  -1.71812259624342E-12   1.53007463618919E-06
     -3.17671920514153E-09   1.52689619886145E-06   2.32928001584346E-13   0.00000000000000E+00   0.00000000000000E+00
      0.00000000000000E+00  -3.50922938771498E-11  -1.97180503382953E-16   3.41872188863129E-07   3.41837096372071E-07
     -7.38997878039161E-14  -4.00000000000000E+01  -4.00000000000000E+01   0.00000000000000E+00  -1.05815795704870E-06
     -5.94997497986022E-15  -8.10575332234840E-07  -1.86873329523352E-06  -1.59028213780430E-13
      3.33502277374268E-10
      8.00000000000000E-01   8.00000000000000E-01   0.00000000000000E+00  -5.59730633150312E-12   1.52153296609096E-06
     -2.13064939311686E-09   1.51939671939151E-06   2.32966923968151E-13   0.00000000000000E+00   0.00000000000000E+00
      0.00000000000000E+00  -3.14391252103794E-11  -1.97180568777786E-16   3.07288300380344E-07   3.07256861057953E-07
     -7.38820517846695E-14  -4.00000000000000E+01  -4.00000000000000E+01   0.00000000000000E+00  -1.01243635369891E-06
     -5.95134861326088E-15  -8.14217220799202E-07  -1.82665358044946E-06  -1.59084872183480E-13
      3.74554829597473E-10
      8.00000000000000E-01   8.00000000000000E-01   0.00000000000000E+00  -6.55122295868909E-12   1.51368709986506E-06
     -1.58711584749545E-09   1.51209343279460E-06   2.32995733421362E-13   0.00000000000000E+00   0.00000000000000E+00
      0.00000000000000E+00  -3.08141506744540E-11  -1.97180617303892E-16   2.82913535574811E-07   2.82882721226956E-07
     -7.38699531614038E-14  -4.00000000000000E+01  -4.00000000000000E+01   0.00000000000000E+00  -9.80662647129664E-07
     -5.95234065840201E-15  -8.14313500939552E-07  -1.79497615402156E-06  -1.59125780259957E-13
      4.36133657932282E-10
      8.00000000000000E-01   8.00000000000000E-01   0.00000000000000E+00  -6.49311072131262E-12   1.50219438936034E-06
     -1.02670345633613E-09   1.50116119279328E-06   2.33038446093094E-13   0.00000000000000E+00   0.00000000000000E+00
      0.00000000000000E+00  -3.14114770847008E-11  -1.97180693476346E-16   2.46363510536025E-07   2.46332098861760E-07
     -7.38536755556134E-14  -4.00000000000000E+01  -4.00000000000000E+01   0.00000000000000E+00  -9.35462302480681E-07
     -5.95377133487287E-15  -8.12030983220590E-07  -1.74749329165504E-06  -1.59184770537480E-13
      4.82317779183388E-10
      8.00000000000000E-01   8.00000000000000E-01   0.00000000000000E+00  -5.84443726500259E-12   1.49457421664969E-06
     -7.47691187063817E-10   1.49382068102536E-06   2.33070179516378E-13   0.00000000000000E+00   0.00000000000000E+00
      0.00000000000000E+00  -3.24425531197737E-11  -1.97180754437848E-16   2.18198965423396E-07   2.18166522673095E-07
     -7.38429597051809E-14  -4.00000000000000E+01  -4.00000000000000E+01   0.00000000000000E+00  -9.02871534450549E-07
     -5.95480084357069E-15  -8.09115663293105E-07  -1.71198720369846E-06  -1.59227219811198E-13
      5.51593961060047E-10
      8.00000000000000E-01   8.00000000000000E-01   0.00000000000000E+00  -4.55548996679155E-12   1.48539300197139E-06
     -4.71105237088713E-10   1.48491734124433E-06   2.33117496142880E-13   0.00000000000000E+00   0.00000000000000E+00
      0.00000000000000E+00  -3.42201870474041E-11  -1.97180852826734E-16   1.74097619228662E-07   1.74063398844434E-07
     -7.38293814771921E-14  -4.00000000000000E+01  -4.00000000000000E+01   0.00000000000000E+00  -8.55263547239003E-07
     -5.95627756198150E-15  -8.03717186893486E-07  -1.65898074008877E-06  -1.59288114665688E-13
      6.03551097467542E-10
      8.00000000000000E-01   8.00000000000000E-01   0.00000000000000E+00  -3.54049922859575E-12   1.48032845660914E-06
     -3.39165914829299E-10   1.47998575019509E-06   2.33152882758027E-13   0.00000000000000E+00   0.00000000000000E+00
      0.00000000000000E+00  -3.55183852722487E-11  -1.97180932008287E-16   1.39497582532369E-07   1.39462063949916E-07
     -7.38212415873955E-14  -4.00000000000000E+01  -4.00000000000000E+01   0.00000000000000E+00  -8.20252786852965E-07
     -5.95733293908534E-15  -7.99195021334703E-07  -1.61944781414500E-06  -1.59331641170631E-13
      6.81486802078783E-10
      8.00000000000000E-01   8.00000000000000E-01   0.00000000000000E+00  -2.14993992280955E-12   1.47541131054341E-06
     -2.13092260730679E-10   1.47519606834276E-06   2.33206026802356E-13   0.00000000000000E+00   0.00000000000000E+00
      0.00000000000000E+00  -3.72217045345980E-11  -1.97181058745965E-16   8.53601793603126E-08   8.53229574585970E-08
     -7.38124792571156E-14  -4.00000000000000E+01  -4.00000000000000E+01   0.00000000000000E+00  -7.68461694584743E-07
     -5.95883367976500E-15  -7.92057325257778E-07  -1.56051902580135E-06  -1.59393547545240E-13
      7.39938580537215E-10
      8.00000000000000E-01   8.00000000000000E-01   0.00000000000000E+00  -1.25853008354835E-12   1.47356620513198E-06
     -1.55163088762941E-10   1.47340978351314E-06   2.33246060053752E-13   0.00000000000000E+00   0.00000000000000E+00
      0.00000000000000E+00  -3.82605911487114E-11  -1.97181159470172E-16   4.32426032659150E-08   4.32043424775851E-08
     -7.38087178788239E-14  -4.00000000000000E+01  -4.00000000000000E+01   0.00000000000000E+00  -7.30052425719547E-07
     -5.95989512854685E-15  -7.86561694311276E-07  -1.51661412599072E-06  -1.59437342174928E-13
      8.27616248224862E-10
      8.00000000000000E-01   8.00000000000000E-01   0.00000000000000E+00  -2.04715076770580E-13   1.47313102662728E-06
     -1.01271042340803E-10   1.47302955086986E-06   2.33306604174522E-13   0.00000000000000E+00   0.00000000000000E+00
      0.00000000000000E+00  -3.94188638195734E-11  -1.97181318350494E-16  -2.17737230625622E-08  -2.18131421235631E-08
     -7.38077572331200E-14  -4.00000000000000E+01  -4.00000000000000E+01   0.00000000000000E+00  -6.72972096864665E-07
     -5.96138547754453E-15  -7.78244305920251E-07  -1.45121640874630E-06  -1.59498846941403E-13
      9.59132749756332E-10
      8.00000000000000E-01   8.00000000000000E-01   0.00000000000000E+00   7.18546961533716E-13   1.47603800857512E-06
     -6.01197596485015E-11   1.47597860736243E-06   2.33398918829573E-13   0.00000000000000E+00   0.00000000000000E+00
      0.00000000000000E+00  -4.02394754434808E-11  -1.97181570956332E-16  -1.21806170957954E-07  -1.21846410630579E-07
     -7.38171343486432E-14  -4.00000000000000E+01  -4.00000000000000E+01   0.00000000000000E+00  -5.88375795745161E-07
     -5.96339453794735E-15  -7.65756395023297E-07  -1.35413219673185E-06  -1.59581784480929E-13
      1.05777012590494E-09
      8.00000000000000E-01   8.00000000000000E-01   0.00000000000000E+00   8.52298351741490E-13   1.47957829407463E-06
     -4.48850407911619E-11   1.47953426133219E-06   2.33469528896048E-13   0.00000000000000E+00   0.00000000000000E+00
      0.00000000000000E+00  -4.00805389937256E-11  -1.97181769217871E-16  -1.97384376503434E-07  -1.97424457239609E-07
     -7.38328033789813E-14  -4.00000000000000E+01  -4.00000000000000E+01   0.00000000000000E+00  -5.25678028047479E-07
     -5.96472503293739E-15  -7.56431770080378E-07  -1.28210980409258E-06  -1.59636725517068E-13
      1.20572619012784E-09
      8.00000000000000E-01   8.00000000000000E-01   0.00000000000000E+00  -1.13393830054164E-13   1.48346737282710E-06
     -3.22137597748403E-11   1.48343504567349E-06   2.33577677176730E-13   0.00000000000000E+00   0.00000000000000E+00
      0.00000000000000E+00  -3.82417621990460E-11  -1.97182075476304E-16  -3.08031210500484E-07  -3.08069452459866E-07
     -7.38700529833280E-14  -4.00000000000000E+01  -4.00000000000000E+01   0.00000000000000E+00  -4.32821808117337E-07
     -5.96644157513031E-15  -7.42543779129849E-07  -1.17536559321363E-06  -1.59707624193402E-13
      1.31669323829502E-09
      8.00000000000000E-01   8.00000000000000E-01   0.00000000000000E+00  -2.04147958783285E-12   1.48213783336573E-06
     -2.67579976970575E-11   1.48210903388844E-06   2.33660228329917E-13   0.00000000000000E+00   0.00000000000000E+00
      0.00000000000000E+00  -3.51847437586130E-11  -1.97182306260135E-16  -3.85698281957894E-07  -3.85733466898835E-07
     -7.39083883752015E-14  -4.00000000000000E+01  -4.00000000000000E+01   0.00000000000000E+00  -3.64171840414470E-07
     -5.96751193302110E-15  -7.32203720607621E-07  -1.09637556698960E-06  -1.59751839954716E-13
      1.39991852442040E-09
      8.00000000000000E-01   8.00000000000000E-01   0.00000000000000E+00  -4.36546029342698E-12   1.47647643690570E-06
     -2.37934124304107E-11   1.47644827803298E-06   2.33722568204507E-13   0.00000000000000E+00   0.00000000000000E+00
      0.00000000000000E+00  -3.16603103612390E-11  -1.97182473052310E-16  -4.38629118674844E-07  -4.38660779182387E-07
     -7.39425390177482E-14  -4.00000000000000E+01  -4.00000000000000E+01   0.00000000000000E+00  -3.13296200942042E-07
     -5.96819431180963E-15  -7.24491291940348E-07  -1.03778749885058E-06  -1.59780029186757E-13
      1.52475645360848E-09
      8.00000000000000E-01   8.00000000000000E-01   0.00000000000000E+00  -9.49061679829640E-12   1.45601288987372E-06
     -2.03984527392402E-11   1.45598300080418E-06   2.33815663094815E-13   0.00000000000000E+00   0.00000000000000E+00
      0.00000000000000E+00  -2.40246293847746E-11  -1.97182689266702E-16  -5.04824238296504E-07  -5.04848263123071E-07
     -7.40012219136130E-14  -4.00000000000000E+01  -4.00000000000000E+01   0.00000000000000E+00  -2.38143620931891E-07
     -5.96902740828865E-15  -7.12991110780198E-07  -9.51134737681116E-07  -1.59814441181203E-13
      1.61838490049953E-09
      8.00000000000000E-01   8.00000000000000E-01   0.00000000000000E+00  -1.46336523455297E-11   1.42802603911339E-06
     -1.84098178771463E-11   1.42799299564317E-06   2.33884102377007E-13   0.00000000000000E+00   0.00000000000000E+00
      0.00000000000000E+00  -1.63790936005289E-11  -1.97182799091403E-16  -5.40655184417240E-07  -5.40671563708023E-07
     -7.40499548424214E-14  -4.00000000000000E+01  -4.00000000000000E+01   0.00000000000000E+00  -1.82901405956925E-07
     -5.96950463454141E-15  -7.04420020008711E-07  -8.87321431935140E-07  -1.59834147534586E-13
      1.75882757083612E-09
      8.00000000000000E-01   8.00000000000000E-01   0.00000000000000E+00  -2.39481977333723E-11   1.35964476427621E-06
     -1.59947089938233E-11   1.35960482136948E-06   2.33981576046611E-13   0.00000000000000E+00   0.00000000000000E+00
      0.00000000000000E+00  -2.32580565807661E-12  -1.97182802255620E-16  -5.65371627055253E-07  -5.65373953058094E-07
     -7.41274037972717E-14  -4.00000000000000E+01  -4.00000000000000E+01   0.00000000000000E+00  -1.02575921671457E-07
     -5.96998996212481E-15  -6.91654940669939E-07  -7.94230868311386E-07  -1.59854172249339E-13
      1.86415957358856E-09
      8.00000000000000E-01   8.00000000000000E-01   0.00000000000000E+00  -3.14864118490221E-11   1.28507502969187E-06
     -1.45098549981667E-11   1.28502903342503E-06   2.34048232125766E-13   0.00000000000000E+00   0.00000000000000E+00
      0.00000000000000E+00   9.38733952177849E-12  -1.97182613428194E-16  -5.57837827717351E-07  -5.57828440575012E-07
     -7.41862981601971E-14  -4.00000000000000E+01  -4.00000000000000E+01   0.00000000000000E+00  -4.50437263096614E-08
     -5.97017856469456E-15  -6.82156860570177E-07  -7.27200592850017E-07  -1.59861933965570E-13
      2.02215757771722E-09
      8.00000000000000E-01   8.00000000000000E-01   0.00000000000000E+00  -4.16116527074194E-11   1.13642529712846E-06
     -1.26536887200935E-11   1.13637103178704E-06   2.34132552287610E-13   0.00000000000000E+00   0.00000000000000E+00
      0.00000000000000E+00   2.61456193272745E-11  -1.97181878661098E-16  -5.03344003124836E-07  -5.03317857702691E-07
     -7.42698834161009E-14  -4.00000000000000E+01  -4.00000000000000E+01   0.00000000000000E+00   3.49910495150033E-08
     -5.97019787885714E-15  -6.68044217629147E-07  -6.33053174084341E-07  -1.59862668871510E-13
      2.14065608081371E-09
      8.00000000000000E-01   8.00000000000000E-01   0.00000000000000E+00  -4.68740389720891E-11   1.00119366392054E-06
     -1.14923160986058E-11   1.00113529756547E-06   2.34180287499187E-13   0.00000000000000E+00   0.00000000000000E+00
      0.00000000000000E+00   3.61269235509374E-11  -1.97180887981431E-16  -4.32348004928508E-07  -4.32311878202138E-07
     -7.43249815058713E-14  -4.00000000000000E+01  -4.00000000000000E+01   0.00000000000000E+00   8.87521250936273E-08
     -5.97002111998582E-15  -6.57575538486938E-07  -5.68823419363332E-07  -1.59855305993316E-13
      2.31840383545845E-09
      8.00000000000000E-01   8.00000000000000E-01   0.00000000000000E+00  -4.90603940503756E-11   7.80145369052511E-07
     -1.00324591644040E-11   7.80086276199297E-07   2.34222472687890E-13   0.00000000000000E+00   0.00000000000000E+00
      0.00000000000000E+00   4.39257615750040E-11  -1.97178590814826E-16  -2.95110579406140E-07  -2.95066653841743E-07
     -7.43891330738082E-14  -4.00000000000000E+01  -4.00000000000000E+01   0.00000000000000E+00   1.57066115141711E-07
     -5.96949200547224E-15  -6.42085731529772E-07  -4.85019622357553E-07  -1.59833339614083E-13
      2.45171465144200E-09
      8.00000000000000E-01   8.00000000000000E-01   0.00000000000000E+00  -4.60789773094162E-11   6.16160367610910E-07
     -9.11731417097898E-12   6.16105171319430E-07   2.34230145917222E-13   0.00000000000000E+00   0.00000000000000E+00
      0.00000000000000E+00   4.36022930542880E-11  -1.97176234109613E-16  -1.83381522793733E-07  -1.83337920697855E-07
     -7.44205174398662E-14  -4.00000000000000E+01  -4.00000000000000E+01   0.00000000000000E+00   1.97888322348108E-07
     -5.96892021707979E-15  -6.30655567000763E-07  -4.32767250621575E-07  -1.59809628477355E-13
      2.65168087541734E-09
      8.00000000000000E-01   8.00000000000000E-01   0.00000000000000E+00  -3.63755726954121E-11   4.02682668776048E-07
     -7.96168008721941E-12   4.02638331523265E-07   2.34206428199869E-13   0.00000000000000E+00   0.00000000000000E+00
      0.00000000000000E+00   3.54462628300670E-11  -1.97171867220374E-16  -3.19028045357654E-08  -3.18673584701072E-08
     -7.44410427164596E-14  -4.00000000000000E+01  -4.00000000000000E+01   0.00000000000000E+00   2.43079855888697E-07
     -5.96785262766559E-15  -6.13850822974003E-07  -3.70770973053159E-07  -1.59765385483410E-13
      2.80165554339884E-09
      8.00000000000000E-01   8.00000000000000E-01   0.00000000000000E+00  -2.73627531991961E-11   2.79390731565538E-07
     -7.22784989295794E-12   2.79356140962445E-07   2.34165711659427E-13   0.00000000000000E+00   0.00000000000000E+00
      0.00000000000000E+00   2.62041603285818E-11  -1.97168159684189E-16   5.60321918295282E-08   5.60583957926887E-08
     -7.44385602887876E-14  -4.00000000000000E+01  -4.00000000000000E+01   0.00000000000000E+00   2.66116467519442E-07
     -5.96692960008387E-15  -6.01530998307646E-07  -3.35414536755134E-07  -1.59727151370639E-13
      2.91413654438496E-09
      8.00000000000000E-01   8.00000000000000E-01   0.00000000000000E+00  -2.09364715926522E-11   2.09362187340621E-07
     -6.73436629745730E-12   2.09334516502731E-07   2.34125603428138E-13   0.00000000000000E+00   0.00000000000000E+00
      0.00000000000000E+00   1.91897404154123E-11  -1.97165286616513E-16   1.04439384426890E-07   1.04458573970140E-07
     -7.44291067236639E-14  -4.00000000000000E+01  -4.00000000000000E+01   0.00000000000000E+00   2.78656674353403E-07
     -5.96618933590407E-15  -5.92449758860084E-07  -3.13793090472870E-07  -1.59696496704473E-13
      3.08285804586415E-09
      8.00000000000000E-01   8.00000000000000E-01   0.00000000000000E+00  -1.30356073654865E-11   1.35744562857502E-07
     -6.06521869663699E-12   1.35725462031440E-07   2.34055143454411E-13   0.00000000000000E+00   0.00000000000000E+00
      0.00000000000000E+00   1.02684569872727E-11  -1.97161059257957E-16   1.51213009947689E-07   1.51223278207515E-07
     -7.44068338212617E-14  -4.00000000000000E+01  -4.00000000000000E+01   0.00000000000000E+00   2.92098035722703E-07
     -5.96502536396027E-15  -5.79046769996632E-07  -2.86948740238954E-07  -1.59648309633149E-13
      3.20939917197354E-09
      8.00000000000000E-01   8.00000000000000E-01   0.00000000000000E+00  -8.73681138018320E-12   1.00249001651310E-07
     -5.60960436621214E-12   1.00234655235564E-07   2.33997001510136E-13   0.00000000000000E+00   0.00000000000000E+00
      0.00000000000000E+00   5.28046590463169E-12  -1.97158080025240E-16   1.69659682915514E-07   1.69664963184260E-07
     -7.43861147938887E-14  -4.00000000000000E+01  -4.00000000000000E+01   0.00000000000000E+00   2.99214734245277E-07
     -5.96412115554030E-15  -5.69114346700981E-07  -2.69899618419825E-07  -1.59610886716249E-13
      3.39921086113763E-09
      8.00000000000000E-01   8.00000000000000E-01   0.00000000000000E+00  -4.61315521728499E-12   6.78045794642535E-08
     -4.98668081789171E-12   6.77949796282184E-08   2.33905686701312E-13   0.00000000000000E+00   0.00000000000000E+00
      0.00000000000000E+00   4.14444121096499E-13  -1.97154100708400E-16   1.79384528758075E-07   1.79384943005042E-07
     -7.43523581803452E-14  -4.00000000000000E+01  -4.00000000000000E+01   0.00000000000000E+00   3.07034115133424E-07
     -5.96273005964386E-15  -5.54214031803954E-07  -2.47179922633260E-07  -1.59553328520966E-13
      3.54156962801069E-09
      8.00000000000000E-01   8.00000000000000E-01   0.00000000000000E+00  -2.88546968775890E-12   5.39835095903582E-08
     -4.56153495577227E-12   5.39760625857147E-08   2.33835884007375E-13   0.00000000000000E+00   0.00000000000000E+00
      0.00000000000000E+00  -1.64818369077779E-12  -1.97151558486068E-16   1.77514647085086E-07   1.77512998704244E-07
     -7.43265784676409E-14  -4.00000000000000E+01  -4.00000000000000E+01   0.00000000000000E+00   3.11353656423223E-07
     -5.96166580014763E-15  -5.42842711751516E-07  -2.31489061289958E-07  -1.59509305539734E-13
      3.75510777832029E-09
      8.00000000000000E-01   8.00000000000000E-01   0.00000000000000E+00  -1.55214315156740E-12   4.17600391868275E-08
     -3.98401223685676E-12   4.17545030314391E-08   2.33731551835435E-13   0.00000000000000E+00   0.00000000000000E+00
      0.00000000000000E+00  -3.22290866958995E-12  -1.97148463300081E-16   1.67304060096748E-07   1.67300836990930E-07
     -7.42892353221600E-14  -4.00000000000000E+01  -4.00000000000000E+01   0.00000000000000E+00   3.15859268611055E-07
     -5.96004589290450E-15  -5.24914602673379E-07  -2.09055340022370E-07  -1.59442316513275E-13
      3.91526139105248E-09
      8.00000000000000E-01   8.00000000000000E-01   0.00000000000000E+00  -1.10243794834329E-12   3.61705174255824E-08
     -3.59498465990239E-12   3.61658200029742E-08   2.33654547296076E-13   0.00000000000000E+00   0.00000000000000E+00
      0.00000000000000E+00  -3.71172917908876E-12  -1.97146659260257E-16   1.56636029273790E-07   1.56632317347465E-07
     -7.42629627172820E-14  -4.00000000000000E+01  -4.00000000000000E+01   0.00000000000000E+00   3.17540046242579E-07
     -5.95881877695931E-15  -5.10338177634199E-07  -1.92798137350439E-07  -1.59391584578794E-13
      4.15549181015078E-09
      8.00000000000000E-01   8.00000000000000E-01   0.00000000000000E+00  -7.86796093796577E-13   3.01930407149583E-08
     -3.07630655894932E-12   3.01891776123055E-08   2.33542384374936E-13   0.00000000000000E+00   0.00000000000000E+00
      0.00000000000000E+00  -3.95253101273123E-12  -1.97144637378319E-16   1.38972363761398E-07   1.38968411033241E-07
     -7.42270096217332E-14  -4.00000000000000E+01  -4.00000000000000E+01   0.00000000000000E+00   3.16517953783238E-07
     -5.95697489442048E-15  -4.85675536471810E-07  -1.69157588645546E-07  -1.59315374753203E-13
      4.33566462447450E-09
      8.00000000000000E-01   8.00000000000000E-01   0.00000000000000E+00  -6.75665424133209E-13   2.66838307272230E-08
     -2.73443240486599E-12   2.66804206293940E-08   2.33461600834826E-13   0.00000000000000E+00   0.00000000000000E+00
      0.00000000000000E+00  -3.92800144647533E-12  -1.97143560306017E-16   1.25401133103099E-07   1.25397204904509E-07
     -7.42029023950719E-14  -4.00000000000000E+01  -4.00000000000000E+01   0.00000000000000E+00   3.12333320179607E-07
     -5.95560324520175E-15  -4.64410939757906E-07  -1.52077625533903E-07  -1.59258698439753E-13
      4.60592384596008E-09
      8.00000000000000E-01   8.00000000000000E-01   0.00000000000000E+00  -5.72125476797304E-13   2.21882570798375E-08
     -2.28879634172735E-12   2.21853961580190E-08   2.33347229629251E-13   0.00000000000000E+00   0.00000000000000E+00