DF-ISE text

Info {
  version   = 1.0
  type      = xyplot
  datasets  = [
    "time"
    "Ntop OuterVoltage" "Ntop InnerVoltage" "Ntop QuasiFermiPotential" "Ntop DisplacementCurrent" "Ntop eCurrent"
    "Ntop hCurrent" "Ntop TotalCurrent" "Ntop Charge" "Ptop OuterVoltage" "Ptop InnerVoltage"
    "Ptop QuasiFermiPotential" "Ptop DisplacementCurrent" "Ptop eCurrent" "Ptop hCurrent" "Ptop TotalCurrent"
    "Ptop Charge" "Pbot OuterVoltage" "Pbot InnerVoltage" "Pbot QuasiFermiPotential" "Pbot DisplacementCurrent"
    "Pbot eCurrent" "Pbot hCurrent" "Pbot TotalCurrent" "Pbot Charge" ]
  functions = [
    Time
    OuterVoltage InnerVoltage QuasiFermiPotential DisplacementCurrent eCurrent
    hCurrent TotalCurrent Charge OuterVoltage InnerVoltage
    QuasiFermiPotential DisplacementCurrent eCurrent hCurrent TotalCurrent
    Charge OuterVoltage InnerVoltage QuasiFermiPotential DisplacementCurrent
    eCurrent hCurrent TotalCurrent Charge ]
}

Data {
      5.00000000000000E-13
      8.00000000000000E-01   8.00000000000000E-01   0.00000000000000E+00   6.79146164341298E-15   7.25050661867552E-12
     -6.86996794478280E-12   3.87330135536139E-13   1.67014632698003E-13   0.00000000000000E+00   0.00000000000000E+00
      0.00000000000000E+00  -1.14444376699554E-13  -1.97161987554651E-16   6.32929044159846E-11   6.31782628772975E-11
     -7.08437734486193E-14  -1.20000000000000E+01  -1.20000000000000E+01   0.00000000000000E+00  -2.54933365548687E-13
      1.37022873343500E-11  -7.70129469816350E-11  -6.35655930128337E-11  -9.61708592493828E-14
      1.25000000000000E-12
      8.00000000000000E-01   8.00000000000000E-01   0.00000000000000E+00   8.16875030187657E-14   3.30967949828512E-11
     -3.17001464824839E-11   1.47833600338610E-12   1.67014632698346E-13   0.00000000000000E+00   0.00000000000000E+00
      0.00000000000000E+00  -8.78621323421040E-14  -1.97161987553408E-16   6.39095296733745E-11   6.38214703790448E-11
     -7.08437734483070E-14  -1.20000000000000E+01  -1.20000000000000E+01   0.00000000000000E+00  -1.55893988555706E-12
      6.32275984934733E-11  -1.26968464990347E-10  -6.52998063824307E-11  -9.61708592500377E-14
      2.37500000000000E-12
      8.00000000000000E-01   8.00000000000000E-01   0.00000000000000E+00   6.06358615512750E-13   2.76092607041369E-10
     -2.62290188247245E-10   1.44087774096368E-11   1.67014632703338E-13   0.00000000000000E+00   0.00000000000000E+00
      0.00000000000000E+00   5.93685148482224E-13  -1.97161987539496E-16   7.08058713385210E-11   7.13993593250157E-11
     -7.08437734435594E-14  -1.20000000000000E+01  -1.20000000000000E+01   0.00000000000000E+00  -1.69777051138753E-11
      5.23013361152644E-10  -5.91843792773421E-10  -8.58081367346526E-11  -9.61708592597776E-14
      4.06250000000000E-12
      8.00000000000000E-01   8.00000000000000E-01   0.00000000000000E+00   9.13100826530499E-12   4.26835770105728E-09
     -3.97900296280523E-09   2.98485746517360E-10   1.67014632850726E-13   0.00000000000000E+00   0.00000000000000E+00
      0.00000000000000E+00   8.20656243605192E-12  -1.97161987211079E-16   2.33447448761992E-10   2.41653814036056E-10
     -7.08437732991439E-14  -1.20000000000000E+01  -1.20000000000000E+01   0.00000000000000E+00  -3.58733167691807E-10
      7.93006786139795E-09  -8.11147425425956E-09  -5.40139560553414E-10  -9.61708595515811E-14
      6.59375000000000E-12
      8.00000000000000E-01   8.00000000000000E-01   0.00000000000000E+00   1.81761821884115E-10   8.81514033876267E-08
     -7.96294088418292E-08   8.70375636768164E-09   1.67014639155216E-13   0.00000000000000E+00   0.00000000000000E+00
      0.00000000000000E+00   1.66260980133162E-10  -1.97161977116468E-16   5.22635258956724E-09   5.39261337253842E-09
     -7.08437669353216E-14  -1.20000000000000E+01  -1.20000000000000E+01   0.00000000000000E+00  -1.05623777199018E-08
      1.58559661962089E-07  -1.62093653982408E-07  -1.40963697402201E-08  -9.61708722198922E-14
      1.03906250000000E-11
      8.00000000000000E-01   8.00000000000000E-01   0.00000000000000E+00   1.52048751071661E-09   7.78960304319504E-07
     -6.62774124573322E-07   1.17706667256898E-07   1.67014773673143E-13   0.00000000000000E+00   0.00000000000000E+00
      0.00000000000000E+00   1.37555325372041E-09  -1.97161843724145E-16   7.11072213990119E-08   7.24827744555705E-08
     -7.08436296007615E-14  -1.20000000000000E+01  -1.20000000000000E+01   0.00000000000000E+00  -1.43156452336315E-07
      1.31746977950512E-06  -1.36450276888127E-06  -1.90189441712469E-07  -9.61711440723799E-14
      1.60859375000000E-11
      8.00000000000000E-01   8.00000000000000E-01   0.00000000000000E+00   8.92384919218959E-10   6.44211991391898E-07
     -3.54664800268699E-07   2.90439576042418E-07   1.67015486465087E-13   0.00000000000000E+00   0.00000000000000E+00
      0.00000000000000E+00   6.16632528803246E-10  -1.97161643947544E-16   1.69297827818540E-07   1.69914460150181E-07
     -7.08429250028175E-14  -1.20000000000000E+01  -1.20000000000000E+01   0.00000000000000E+00  -3.46147590273333E-07
      6.94216009968170E-07  -8.08422455887437E-07  -4.60354036192600E-07  -9.61725614622689E-14
      2.46289062500000E-11
      8.00000000000000E-01   8.00000000000000E-01   0.00000000000000E+00   1.24514840639486E-10   3.90265408732622E-07
     -8.85893291577699E-09   3.81530990657485E-07   1.67017279722872E-13   0.00000000000000E+00   0.00000000000000E+00
      0.00000000000000E+00  -1.43638948708284E-10  -1.97161597450999E-16   1.91444929403849E-07   1.91301290257979E-07
     -7.08413514427433E-14  -1.20000000000000E+01  -1.20000000000000E+01   0.00000000000000E+00  -4.27773669915087E-07
      1.28637170196670E-09  -1.46344982702343E-07  -5.72832280915464E-07  -9.61759282801282E-14
      3.74433593750000E-11
      8.00000000000000E-01   8.00000000000000E-01   0.00000000000000E+00   9.16991614071901E-11   4.21573151911254E-07
     -7.46845890377171E-09   4.14196392168889E-07   1.67020486866674E-13   0.00000000000000E+00   0.00000000000000E+00
      0.00000000000000E+00  -1.11441692222413E-10  -1.97161657139241E-16   1.61050820327988E-07   1.60939378438604E-07
     -7.08391021298337E-14  -1.20000000000000E+01  -1.20000000000000E+01   0.00000000000000E+00  -4.23602020051181E-07
     -4.04707671183246E-15  -1.51533746509235E-07  -5.75135770607493E-07  -9.61813847368407E-14
      5.66650390625000E-11
      8.00000000000000E-01   8.00000000000000E-01   0.00000000000000E+00   6.47004984356717E-11   4.55305809834817E-07
     -6.46735565938804E-09   4.48903154673865E-07   1.67025806852797E-13   0.00000000000000E+00   0.00000000000000E+00
      0.00000000000000E+00  -8.42580852971345E-11  -1.97161727038777E-16   1.25520046520840E-07   1.25435788238382E-07
     -7.08363647552003E-14  -1.20000000000000E+01  -1.20000000000000E+01   0.00000000000000E+00  -4.14654279714463E-07
     -4.08998842598945E-15  -1.59684659107795E-07  -5.74338942912246E-07  -9.61894420975969E-14
      8.54975585937500E-11
      8.00000000000000E-01   8.00000000000000E-01   0.00000000000000E+00   3.95544372561026E-11   4.87737893874040E-07
     -5.21011388265983E-09   4.82567334428636E-07   1.67034516521174E-13   0.00000000000000E+00   0.00000000000000E+00
      0.00000000000000E+00  -5.83906091068278E-11  -1.97161803560746E-16   8.68494774394611E-08   8.67910866331925E-08
     -7.08333323724116E-14  -1.20000000000000E+01  -1.20000000000000E+01   0.00000000000000E+00  -3.99771639252609E-07
     -4.11879840193732E-15  -1.69586777690422E-07  -5.69358421061829E-07  -9.62011841487624E-14
      1.28746337890625E-10
      8.00000000000000E-01   8.00000000000000E-01   0.00000000000000E+00   1.86542665042859E-11   5.13139570431972E-07
     -3.76557480685990E-09   5.09392649891617E-07   1.67048434620240E-13   0.00000000000000E+00   0.00000000000000E+00
      0.00000000000000E+00  -3.64301877232085E-11  -1.97161881021947E-16   4.83927057652344E-08   4.83562753803493E-08
     -7.08304549683336E-14  -1.20000000000000E+01  -1.20000000000000E+01   0.00000000000000E+00  -3.76965414580586E-07
     -4.13493554826268E-15  -1.80783506556445E-07  -5.57748925271967E-07  -9.62179796519043E-14
      1.93619506835937E-10
      8.00000000000000E-01   8.00000000000000E-01   0.00000000000000E+00   3.91013648083297E-12   5.25127684662033E-07
     -2.31199347281392E-09   5.22819601325700E-07   1.67069881214479E-13   0.00000000000000E+00   0.00000000000000E+00
      0.00000000000000E+00  -2.07833734204609E-11  -1.97161953789603E-16   1.38104611799561E-08   1.37896776093737E-08
     -7.08285031705059E-14  -1.20000000000000E+01  -1.20000000000000E+01   0.00000000000000E+00  -3.44654029388509E-07
     -4.14176314899185E-15  -1.91955245404801E-07  -5.36609278935073E-07  -9.62413780439740E-14
      2.42274383544922E-10
      8.00000000000000E-01   8.00000000000000E-01   0.00000000000000E+00  -8.41486503753258E-13   5.24283005383260E-07
     -1.61068965558467E-09   5.22671474241172E-07   1.67085860760970E-13   0.00000000000000E+00   0.00000000000000E+00
      0.00000000000000E+00  -1.58035279108371E-11  -1.97161991584230E-16  -3.00799553160865E-09  -3.02379925668148E-09
     -7.08282574896342E-14  -1.20000000000000E+01  -1.20000000000000E+01   0.00000000000000E+00  -3.22440764962984E-07
     -4.14317852302001E-15  -1.97206905878328E-07  -5.19647674984490E-07  -9.62576032713362E-14
      3.15256698608398E-10
      8.00000000000000E-01   8.00000000000000E-01   0.00000000000000E+00  -3.87329268163246E-12   5.17390010922373E-07
     -9.38976662288071E-10   5.16447160967404E-07   1.67109227481982E-13   0.00000000000000E+00   0.00000000000000E+00
      0.00000000000000E+00  -1.27457055696465E-11  -1.97162038574487E-16  -2.26747887623000E-08  -2.26875346650317E-08
     -7.08292146321033E-14  -1.20000000000000E+01  -1.20000000000000E+01   0.00000000000000E+00  -2.91919684499829E-07
     -4.14423815705048E-15  -2.01839937658305E-07  -4.93759626302372E-07  -9.62800128498783E-14
      3.69993434906006E-10
      8.00000000000000E-01   8.00000000000000E-01   0.00000000000000E+00  -4.61758189152682E-12   5.10524832265092E-07
     -6.32417983229200E-10   5.09887796699971E-07   1.67126223533570E-13   0.00000000000000E+00   0.00000000000000E+00
      0.00000000000000E+00  -1.20312532676797E-11  -1.97162070869849E-16  -3.55732583226233E-08  -3.55852897730530E-08
     -7.08308137459567E-14  -1.20000000000000E+01  -1.20000000000000E+01   0.00000000000000E+00  -2.70766085848428E-07
     -4.14479261385699E-15  -2.03536416933698E-07  -4.74302506926918E-07  -9.62954097876134E-14
      4.52098539352417E-10
      8.00000000000000E-01   8.00000000000000E-01   0.00000000000000E+00  -5.01397126859730E-12   4.99716703495602E-07
     -3.53231282512964E-10   4.99358458241821E-07   1.67150907867461E-13   0.00000000000000E+00   0.00000000000000E+00
      0.00000000000000E+00  -1.15913047780629E-11  -1.97162118206582E-16  -5.40332280651296E-08  -5.40448195670698E-08
     -7.08344963350731E-14  -1.20000000000000E+01  -1.20000000000000E+01   0.00000000000000E+00  -2.40981077833293E-07
     -4.14551777528662E-15  -2.04332556695940E-07  -4.45313638674751E-07  -9.63164115323868E-14
      5.13677367687225E-10
      8.00000000000000E-01   8.00000000000000E-01   0.00000000000000E+00  -5.24915704912615E-12   4.91432119793272E-07
     -2.32836907753227E-10   4.91194033728470E-07   1.67168830753926E-13   0.00000000000000E+00   0.00000000000000E+00
      0.00000000000000E+00  -1.12097072809406E-11  -1.97162153000099E-16  -6.74021282059853E-08  -6.74133381104284E-08
     -7.08382351708338E-14  -1.20000000000000E+01  -1.20000000000000E+01   0.00000000000000E+00  -2.19762778181848E-07
     -4.14600288126997E-15  -2.04017913290190E-07  -4.23780695618041E-07  -9.63305955830923E-14
      5.59861488938332E-10
      8.00000000000000E-01   8.00000000000000E-01   0.00000000000000E+00  -5.54978315207491E-12   4.84980401438151E-07
     -1.72585800371614E-10   4.84802265854627E-07   1.67181956386249E-13   0.00000000000000E+00   0.00000000000000E+00
      0.00000000000000E+00  -1.07262630766954E-11  -1.97162178299670E-16  -7.70368370568030E-08  -7.70475635170418E-08
     -7.08415689772957E-14  -1.20000000000000E+01  -1.20000000000000E+01   0.00000000000000E+00  -2.04299260132702E-07
     -4.14633759951706E-15  -2.03455438058546E-07  -4.07754702337585E-07  -9.63403874089544E-14
      6.29137670814991E-10
      8.00000000000000E-01   8.00000000000000E-01   0.00000000000000E+00  -6.31074535010522E-12   4.74437769646126E-07
     -1.12461012931708E-10   4.74318997887844E-07   1.67201121331812E-13   0.00000000000000E+00   0.00000000000000E+00
      0.00000000000000E+00  -9.55837606422969E-12  -1.97162213831467E-16  -9.04007417831500E-08  -9.04103003563765E-08
     -7.08473674120532E-14  -1.20000000000000E+01  -1.20000000000000E+01   0.00000000000000E+00  -1.81638975894257E-07
     -4.14679448758615E-15  -2.02269717490418E-07  -3.83908697531469E-07  -9.63537539197593E-14
      7.33051943629980E-10
      8.00000000000000E-01   8.00000000000000E-01   0.00000000000000E+00  -8.22592737261152E-12   4.55155926627366E-07
     -6.27372469549729E-11   4.55084963453039E-07   1.67228514869554E-13   0.00000000000000E+00   0.00000000000000E+00
      0.00000000000000E+00  -6.70020438997110E-12  -1.97162258104486E-16  -1.06495259462790E-07  -1.06501959864342E-07
     -7.08576090959212E-14  -1.20000000000000E+01  -1.20000000000000E+01   0.00000000000000E+00  -1.48557752092222E-07
     -4.14738077716473E-15  -2.00025247349095E-07  -3.48583003588698E-07  -9.63709057736332E-14
      8.10987648241222E-10
      8.00000000000000E-01   8.00000000000000E-01   0.00000000000000E+00  -1.01970072357538E-11   4.36764398940841E-07
     -4.33207115508928E-11   4.36710881222055E-07   1.67247747769322E-13   0.00000000000000E+00   0.00000000000000E+00
      0.00000000000000E+00  -3.77238673184841E-12  -1.97162281281449E-16  -1.14215203064604E-07  -1.14218975648498E-07
     -7.08662090129250E-14  -1.20000000000000E+01  -1.20000000000000E+01   0.00000000000000E+00  -1.24350888798766E-07
     -4.14774425589611E-15  -1.98141012627047E-07  -3.22491905573558E-07  -9.63815387563967E-14
      9.27891205158085E-10
      8.00000000000000E-01   8.00000000000000E-01   0.00000000000000E+00  -1.35274680362964E-11   4.01192545721869E-07
     -2.74821098142100E-11   4.01151536144018E-07   1.67273750563408E-13   0.00000000000000E+00   0.00000000000000E+00
      0.00000000000000E+00   1.32301295802794E-12  -1.97162295361772E-16  -1.16846029885983E-07  -1.16844707070188E-07
     -7.08797421073429E-14  -1.20000000000000E+01  -1.20000000000000E+01   0.00000000000000E+00  -8.91096799489260E-08
     -4.14817055586950E-15  -1.95197144976735E-07  -2.84306829073832E-07  -9.63940084560647E-14
      1.01556887284573E-09
      8.00000000000000E-01   8.00000000000000E-01   0.00000000000000E+00  -1.58474989389836E-11   3.68139964666954E-07
     -2.12284549110516E-11   3.68102888713104E-07   1.67290449050086E-13   0.00000000000000E+00   0.00000000000000E+00
      0.00000000000000E+00   5.13877137502410E-12  -1.97162288677026E-16  -1.11338616577495E-07  -1.11333478003282E-07
     -7.08897417215490E-14  -1.20000000000000E+01  -1.20000000000000E+01   0.00000000000000E+00  -6.37994326531971E-08
     -4.14839961015192E-15  -1.92969973908226E-07  -2.56769410709823E-07  -9.64007073285367E-14
      1.14708537437720E-09
      8.00000000000000E-01   8.00000000000000E-01   0.00000000000000E+00  -1.80954407602235E-11   3.10731866230282E-07
     -1.58600661620958E-11   3.10697910723359E-07   1.67309915707594E-13   0.00000000000000E+00   0.00000000000000E+00
      0.00000000000000E+00   9.67105589855228E-12  -1.97162254656961E-16  -9.24843280280176E-08  -9.24746571692813E-08
     -7.09031582157548E-14  -1.20000000000000E+01  -1.20000000000000E+01   0.00000000000000E+00  -2.85370197827985E-08
     -4.14860658023159E-15  -1.89686229622673E-07  -2.18223253554078E-07  -9.64067574918401E-14
      1.34436012667441E-09
      8.00000000000000E-01   8.00000000000000E-01   0.00000000000000E+00  -1.76568313061317E-11   2.19665300344078E-07
     -1.18242161354784E-11   2.19635819296636E-07   1.67325153289380E-13   0.00000000000000E+00   0.00000000000000E+00
      0.00000000000000E+00   1.21823869218256E-11  -1.97162175070342E-16  -5.05175557467770E-08  -5.05053735570173E-08
     -7.09172432633968E-14  -1.20000000000000E+01  -1.20000000000000E+01   0.00000000000000E+00   1.58538069974522E-08
     -4.14864635215443E-15  -1.84984248588425E-07  -1.69130445739619E-07  -9.64079100259834E-14
      1.35360738068834E-09
      8.00000000000000E-01   8.00000000000000E-01   0.00000000000000E+00  -1.74791792709453E-11   2.15514409381569E-07
     -1.17003214399957E-11   2.15485229880858E-07   1.67325451315869E-13   0.00000000000000E+00   0.00000000000000E+00
      0.00000000000000E+00   1.21634337549509E-11  -1.97162171053597E-16  -4.83739918881182E-08  -4.83618286515255E-08
     -7.09176962000287E-14  -1.20000000000000E+01  -1.20000000000000E+01   0.00000000000000E+00   1.76477789687546E-08
     -4.14864107848946E-15  -1.84771176049446E-07  -1.67123401229332E-07  -9.64077551158410E-14
      1.36054282119879E-09
      8.00000000000000E-01   8.00000000000000E-01   0.00000000000000E+00  -1.74227576665772E-11   2.12422324082656E-07
     -1.16094786519272E-11   2.12393291846337E-07   1.67325650995829E-13   0.00000000000000E+00   0.00000000000000E+00
      0.00000000000000E+00   1.21400768456332E-11  -1.97162168054461E-16  -4.67686761864308E-08  -4.67565363067473E-08
     -7.09180228825671E-14  -1.20000000000000E+01  -1.20000000000000E+01   0.00000000000000E+00   1.89750634248252E-08
     -4.14863675359797E-15  -1.84611814815778E-07  -1.65636755539590E-07  -9.64076281132606E-14
      1.37094598196446E-09
      8.00000000000000E-01   8.00000000000000E-01   0.00000000000000E+00  -1.72581687160922E-11   2.07820189400268E-07
     -1.14764119441554E-11   2.07791454819608E-07   1.67325912520909E-13   0.00000000000000E+00   0.00000000000000E+00
      0.00000000000000E+00   1.21182145369556E-11  -1.97162163581791E-16  -4.43665923136448E-08  -4.43544742962700E-08
     -7.09184920266311E-14  -1.20000000000000E+01  -1.20000000000000E+01   0.00000000000000E+00   2.09365016030022E-08
     -4.14862968155799E-15  -1.84373477977710E-07  -1.63436980523338E-07  -9.64074204942775E-14
      1.38655072311297E-09
      8.00000000000000E-01   8.00000000000000E-01   0.00000000000000E+00  -1.69924476008548E-11   2.01003319289744E-07
     -1.12836479588868E-11   2.00975043194185E-07   1.67326220239733E-13   0.00000000000000E+00   0.00000000000000E+00
      0.00000000000000E+00   1.20393045279791E-11  -1.97162156941819E-16  -4.07818811262085E-08  -4.07698420188427E-08
     -7.09191489458000E-14  -1.20000000000000E+01  -1.20000000000000E+01   0.00000000000000E+00   2.38123394359712E-08
     -4.14861778310328E-15  -1.84017536462696E-07  -1.60205201175342E-07  -9.64070712939332E-14
      1.40995783483573E-09
      8.00000000000000E-01   8.00000000000000E-01   0.00000000000000E+00  -1.65549212382992E-11   1.90989119556636E-07
     -1.10087682432564E-11   1.90961555867154E-07   1.67326494894541E-13   0.00000000000000E+00   0.00000000000000E+00
      0.00000000000000E+00   1.18507229189219E-11  -1.97162147169543E-16  -3.54631590935243E-08  -3.54513085677675E-08
     -7.09200298975719E-14  -1.20000000000000E+01  -1.20000000000000E+01   0.00000000000000E+00   2.79768104024633E-08
     -4.14859711711968E-15  -1.83487053553252E-07  -1.55510247299386E-07  -9.64064649969684E-14
      1.44506850241988E-09
      8.00000000000000E-01   8.00000000000000E-01   0.00000000000000E+00  -1.58226547274138E-11   1.76493542315033E-07
     -1.06252072375358E-11   1.76467094453068E-07   1.67326498786961E-13   0.00000000000000E+00   0.00000000000000E+00
      0.00000000000000E+00   1.14755940813854E-11  -1.97162133025126E-16  -2.76687966933411E-08  -2.76573212964219E-08
     -7.09211204654406E-14  -1.20000000000000E+01  -1.20000000000000E+01   0.00000000000000E+00   3.38889080914788E-08
     -4.14856006352820E-15  -1.82698677099565E-07  -1.48809773156646E-07  -9.64053783215208E-14
      1.49773450379610E-09
      8.00000000000000E-01   8.00000000000000E-01   0.00000000000000E+00  -1.45912955615380E-11   1.56072237103107E-07
     -1.01050896514719E-11   1.56047540717894E-07   1.67325633521160E-13   0.00000000000000E+00   0.00000000000000E+00
      0.00000000000000E+00   1.07178563750914E-11  -1.97162113189733E-16  -1.65428844529417E-08  -1.65321667937287E-08
     -7.09222559774939E-14  -1.20000000000000E+01  -1.20000000000000E+01   0.00000000000000E+00   4.20156778665697E-08
     -4.14849181702964E-15  -1.81531047642243E-07  -1.39515373924165E-07  -9.64033775436655E-14
      1.57673350586043E-09
      8.00000000000000E-01   8.00000000000000E-01   0.00000000000000E+00  -1.25712611192699E-11   1.28724461541709E-07
     -9.42419103397985E-12   1.28702466089556E-07   1.67322552655742E-13   0.00000000000000E+00   0.00000000000000E+00
      0.00000000000000E+00   9.27089341601859E-12  -1.97162086897881E-16  -1.51356955416276E-09  -1.50429885790883E-09
     -7.09229189629661E-14  -1.20000000000000E+01  -1.20000000000000E+01   0.00000000000000E+00   5.26077738212881E-08
     -4.14836407606639E-15  -1.79805936904571E-07  -1.27198167231647E-07  -9.63996336927753E-14
      1.69523200895692E-09
      8.00000000000000E-01   8.00000000000000E-01   0.00000000000000E+00  -9.51623305370501E-12   9.54128840734305E-08
     -8.56673458016080E-12   9.53948011057967E-08   1.67314559733133E-13   0.00000000000000E+00   0.00000000000000E+00
      0.00000000000000E+00   6.80390974998144E-12  -1.97162054693587E-16   1.65915220067089E-08   1.65983257192968E-08
     -7.09219272767228E-14  -1.20000000000000E+01  -1.20000000000000E+01   0.00000000000000E+00   6.52500243659078E-08
     -4.14812513705042E-15  -1.77243147042876E-07  -1.11993126825093E-07  -9.63926324564100E-14
      1.87297976360166E-09
      8.00000000000000E-01   8.00000000000000E-01   0.00000000000000E+00  -5.66479874019305E-12   6.12663288687813E-08
     -7.52497378424252E-12   6.12531390962569E-08   1.67297077656052E-13   0.00000000000000E+00   0.00000000000000E+00
      0.00000000000000E+00   3.41015296706412E-12  -1.97162015603015E-16   3.37043009087410E-08   3.37077108645460E-08
     -7.09172513027930E-14  -1.20000000000000E+01  -1.20000000000000E+01   0.00000000000000E+00   7.83304247528738E-08
     -4.14768802324003E-15  -1.73291270565989E-07  -9.49608499608031E-08  -9.63798263532577E-14
      2.00629057958522E-09
      8.00000000000000E-01   8.00000000000000E-01   0.00000000000000E+00  -3.62633853629163E-12   4.55644512280406E-08
     -6.87285174203350E-12   4.55539520377623E-08   1.67281166587778E-13   0.00000000000000E+00   0.00000000000000E+00
      0.00000000000000E+00   1.51469077834219E-12  -1.97161986686656E-16   3.98563712258914E-08   3.98578857195077E-08
     -7.09122177754577E-14  -1.20000000000000E+01  -1.20000000000000E+01   0.00000000000000E+00   8.46580653816748E-08
     -4.14731671611288E-15  -1.70069898991628E-07  -8.54118377572702E-08  -9.63689488123193E-14
      2.20625680356055E-09
      8.00000000000000E-01   8.00000000000000E-01   0.00000000000000E+00  -1.81002732717108E-12   3.19032378048218E-08
     -6.02892174915579E-12   3.18953988557454E-08   1.67255206425713E-13   0.00000000000000E+00   0.00000000000000E+00
      0.00000000000000E+00  -2.12556318596466E-13  -1.97161935853722E-16   4.21188820376380E-08   4.21186692841575E-08
     -7.09037917240561E-14  -1.20000000000000E+01  -1.20000000000000E+01   0.00000000000000E+00   9.03899268602120E-08
     -4.14671818864091E-15  -1.64403990853397E-07  -7.40140681399029E-08  -9.63514147016566E-14
      2.35623147154205E-09
      8.00000000000000E-01   8.00000000000000E-01   0.00000000000000E+00  -1.13235132079089E-12   2.62765298385156E-08
     -5.47610962572229E-12   2.62699213775691E-08   1.67235129968507E-13   0.00000000000000E+00   0.00000000000000E+00
      0.00000000000000E+00  -8.48230603942313E-13  -1.97161892964749E-16   4.05408669741510E-08   4.05400185463852E-08
     -7.08974344873938E-14  -1.20000000000000E+01  -1.20000000000000E+01   0.00000000000000E+00   9.24197062129775E-08
     -4.14624989649150E-15  -1.59229641990682E-07  -6.68099399239542E-08  -9.63376954811126E-14
      2.58119347351430E-09
      8.00000000000000E-01   8.00000000000000E-01   0.00000000000000E+00  -6.64295712003235E-13   2.11253768595121E-08
     -4.74484740379559E-12   2.11199677163963E-08   1.67205438282046E-13   0.00000000000000E+00   0.00000000000000E+00
      0.00000000000000E+00  -1.22994804246489E-12  -1.97161831437921E-16   3.59944703854097E-08   3.59932402402054E-08
     -7.08885718376008E-14  -1.20000000000000E+01  -1.20000000000000E+01   0.00000000000000E+00   9.24638111826429E-08
     -4.14553894861872E-15  -1.49577014993706E-07  -5.71132079566017E-08  -9.63168664444449E-14
      2.74991497499349E-09
      8.00000000000000E-01   8.00000000000000E-01   0.00000000000000E+00  -5.19879866979149E-13   1.85257195798043E-08
     -4.26185810750737E-12   1.85209378418298E-08   1.67184085505572E-13   0.00000000000000E+00   0.00000000000000E+00
      0.00000000000000E+00  -1.27542795349398E-12  -1.97161794462839E-16   3.19492983999540E-08   3.19480227748388E-08
     -7.08826498581042E-14  -1.20000000000000E+01  -1.20000000000000E+01   0.00000000000000E+00   9.02960668769707E-08
     -4.14501227552334E-15  -1.40765023348627E-07  -5.04689606166686E-08  -9.63014356474680E-14
      3.00299722721227E-09
      8.00000000000000E-01   8.00000000000000E-01   0.00000000000000E+00  -4.09424175207818E-13   1.54550307456724E-08
     -3.62602733443565E-12   1.54509952941628E-08   1.67154391817097E-13   0.00000000000000E+00   0.00000000000000E+00
      0.00000000000000E+00  -1.19349757281864E-12  -1.97161760684240E-16   2.59687528476517E-08   2.59675591529171E-08
     -7.08750365461551E-14  -1.20000000000000E+01  -1.20000000000000E+01   0.00000000000000E+00   8.39021273094994E-08
     -4.14425865780391E-15  -1.25320677612321E-07  -4.14185544470799E-08  -9.62793552709409E-14
      3.19280891637635E-09
      8.00000000000000E-01   8.00000000000000E-01   0.00000000000000E+00  -3.57774205640777E-13   1.35413759337616E-08
     -3.21092155089294E-12   1.35378072380050E-08   1.67134351678644E-13   0.00000000000000E+00   0.00000000000000E+00
      0.00000000000000E+00  -1.07508801813911E-12  -1.97161751645211E-16   2.18579923924931E-08   2.18569171073132E-08
     -7.08702860468671E-14  -1.20000000000000E+01  -1.20000000000000E+01   0.00000000000000E+00   7.70820172705514E-08
     -4.14373681368317E-15  -1.12476737472133E-07  -3.53947243453182E-08  -9.62640656317763E-14
      3.47752645012248E-09
      8.00000000000000E-01   8.00000000000000E-01   0.00000000000000E+00  -2.94818604796648E-13   1.10983209029967E-08
     -2.67334542093558E-12   1.10953527389710E-08   1.67108352403834E-13   0.00000000000000E+00   0.00000000000000E+00
      0.00000000000000E+00  -8.72011997387519E-13  -1.97161757084346E-16   1.65658984328994E-08   1.65650262237402E-08
     -7.08645198546844E-14  -1.20000000000000E+01  -1.20000000000000E+01   0.00000000000000E+00   6.49219261319783E-08
     -4.14304623583694E-15  -9.25823009516433E-08  -2.76603789627112E-08  -9.62438325491494E-14
      3.90460275074168E-09
      8.00000000000000E-01   8.00000000000000E-01   0.00000000000000E+00  -2.18162763362859E-13   8.22207791398349E-09
     -2.02717367669547E-12   8.21983257754343E-09   1.67078502421157E-13   0.00000000000000E+00   0.00000000000000E+00
      0.00000000000000E+00  -5.80127186626860E-13  -1.97161788233876E-16   1.06674646289160E-08   1.06668843045676E-08
     -7.08583275537342E-14  -1.20000000000000E+01  -1.20000000000000E+01   0.00000000000000E+00   4.60047352082345E-08
     -4.14223874771135E-15  -6.48914479481068E-08  -1.88867168821110E-08  -9.62201748674228E-14
      4.54521720167046E-09
      8.00000000000000E-01   8.00000000000000E-01   0.00000000000000E+00  -1.34658023235517E-13   5.27221727723946E-09
     -1.33328467596355E-12   5.27074933454026E-09   1.67050806336391E-13   0.00000000000000E+00   0.00000000000000E+00
      0.00000000000000E+00  -2.71646689624023E-13  -1.97161849989638E-16   5.55337203048327E-09   5.55310018663180E-09
     -7.08527236870413E-14  -1.20000000000000E+01  -1.20000000000000E+01   0.00000000000000E+00   2.38668436281740E-08
     -4.14148467300204E-15  -3.46906890078614E-08  -1.08238495211721E-08  -9.61980826493498E-14
      5.50613887806365E-09
      8.00000000000000E-01   8.00000000000000E-01   0.00000000000000E+00  -6.66700364984769E-14   2.77741968338807E-09
     -7.04532589243651E-13   2.77664848076233E-09   1.67031833821181E-13   0.00000000000000E+00   0.00000000000000E+00
      0.00000000000000E+00  -8.17313107300095E-14  -1.97161935717014E-16   2.49101668632715E-09   2.49093475785448E-09
     -7.08484908341248E-14  -1.20000000000000E+01  -1.20000000000000E+01   0.00000000000000E+00   8.24888899880066E-09
     -4.14098152192103E-15  -1.35164680964359E-08  -5.26758323861680E-09  -9.61833429870562E-14
      6.22683013535853E-09
      8.00000000000000E-01   8.00000000000000E-01   0.00000000000000E+00  -4.18030186036996E-14   1.75709255834237E-09
     -4.37592423857129E-13   1.75661316289991E-09   1.67025588971525E-13   0.00000000000000E+00   0.00000000000000E+00
      0.00000000000000E+00  -4.62197109005961E-14  -1.97161988501640E-16   1.63066661666564E-09   1.63062019979275E-09
     -7.08468093841955E-14  -1.20000000000000E+01  -1.20000000000000E+01   0.00000000000000E+00   4.67611422582228E-09
     -4.14082568138844E-15  -8.06334344768926E-09  -3.38723336269266E-09  -9.61787795873289E-14
      6.49708935684412E-09
      8.00000000000000E-01   8.00000000000000E-01   0.00000000000000E+00  -3.53965367989214E-14   1.48218205007611E-09
     -3.66493819573126E-13   1.48178015971973E-09   1.67023957010087E-13   0.00000000000000E+00   0.00000000000000E+00