DF-ISE text

Info {
  version   = 1.0
  type      = xyplot
  datasets  = [
    "time"
    "Ntop OuterVoltage" "Ntop InnerVoltage" "Ntop QuasiFermiPotential" "Ntop DisplacementCurrent" "Ntop eCurrent"
    "Ntop hCurrent" "Ntop TotalCurrent" "Ntop Charge" "Ptop OuterVoltage" "Ptop InnerVoltage"
    "Ptop QuasiFermiPotential" "Ptop DisplacementCurrent" "Ptop eCurrent" "Ptop hCurrent" "Ptop TotalCurrent"
    "Ptop Charge" "Pbot OuterVoltage" "Pbot InnerVoltage" "Pbot QuasiFermiPotential" "Pbot DisplacementCurrent"
    "Pbot eCurrent" "Pbot hCurrent" "Pbot TotalCurrent" "Pbot Charge" ]
  functions = [
    Time
    OuterVoltage InnerVoltage QuasiFermiPotential DisplacementCurrent eCurrent
    hCurrent TotalCurrent Charge OuterVoltage InnerVoltage
    QuasiFermiPotential DisplacementCurrent eCurrent hCurrent TotalCurrent
    Charge OuterVoltage InnerVoltage QuasiFermiPotential DisplacementCurrent
    eCurrent hCurrent TotalCurrent Charge ]
}

Data {
      5.00000000000000E-13
      8.00000000000000E-01   8.00000000000000E-01   0.00000000000000E+00   9.39245203545780E-15   7.17662270536985E-12
     -6.60134105371035E-12   5.84674103694958E-13   2.34224766837352E-13   0.00000000000000E+00   0.00000000000000E+00
      0.00000000000000E+00  -1.21712579331335E-13  -1.97157898428249E-16   1.75442995576844E-09   1.75430804603121E-09
     -6.21801123149400E-14  -4.50000000000000E+01  -4.50000000000000E+01   0.00000000000000E+00  -3.93280077231409E-13
      1.31642300838885E-11  -1.76766367014156E-09  -1.75489272013490E-09  -1.72044654522412E-13
      1.25000000000000E-12
      8.00000000000000E-01   8.00000000000000E-01   0.00000000000000E+00   1.01285963617015E-13   3.23159842340638E-11
     -3.04606224507726E-11   1.95664774690820E-12   2.34224766837716E-13   0.00000000000000E+00   0.00000000000000E+00
      0.00000000000000E+00  -3.89231877664721E-14  -1.97157898425958E-16   1.75548797076962E-09   1.75544885042395E-09
     -6.21801123143614E-14  -4.50000000000000E+01  -4.50000000000000E+01   0.00000000000000E+00  -2.24890048461618E-12
      6.07530274116004E-11  -1.81590962509785E-09  -1.75740549817086E-09  -1.72044654523355E-13
      2.37500000000000E-12
      8.00000000000000E-01   8.00000000000000E-01   0.00000000000000E+00   7.67134967607881E-13   2.69342322398535E-10
     -2.52034248676596E-10   1.80752086895465E-11   2.34224766843043E-13   0.00000000000000E+00   0.00000000000000E+00
      0.00000000000000E+00   1.02136736600473E-12  -1.97157898400081E-16   1.76821772683413E-09   1.76923889704223E-09
     -6.21801123056875E-14  -4.50000000000000E+01  -4.50000000000000E+01   0.00000000000000E+00  -2.43803851243028E-11
      5.02560478211076E-10  -2.26549419881855E-09  -1.78731410573178E-09  -1.72044654537355E-13
      4.06250000000000E-12
      8.00000000000000E-01   8.00000000000000E-01   0.00000000000000E+00   1.15003824011373E-11   4.18359142677331E-09
     -3.82341800168811E-09   3.71673807486344E-10   2.34224766999474E-13   0.00000000000000E+00   0.00000000000000E+00
      0.00000000000000E+00   1.47135095557829E-11  -1.97157897805458E-16   2.06302704141272E-09   2.07774035381060E-09
     -6.21801120431680E-14  -4.50000000000000E+01  -4.50000000000000E+01   0.00000000000000E+00  -5.14363614160216E-10
      7.61998805521167E-09  -9.55503860234841E-09  -2.44941416129695E-09  -1.72044654956305E-13
      6.59375000000000E-12
      8.00000000000000E-01   8.00000000000000E-01   0.00000000000000E+00   2.29064897592154E-10   8.71164455894242E-08
     -7.65157803539054E-08   1.08297301331109E-08   2.34224773665298E-13   0.00000000000000E+00   0.00000000000000E+00
      0.00000000000000E+00   2.96816617183020E-10  -1.97157879652035E-16   1.10568100023650E-08   1.13536264223901E-08
     -6.21801005528466E-14  -4.50000000000000E+01  -4.50000000000000E+01   0.00000000000000E+00  -1.51178501829701E-08
      1.52359739452510E-07  -1.59425245825041E-07  -2.21833565555010E-08  -1.72044673112452E-13
      1.03906250000000E-11
      8.00000000000000E-01   8.00000000000000E-01   0.00000000000000E+00   1.91415945461275E-09   7.81084108349959E-07
     -6.36858672285563E-07   1.46139595519009E-07   2.34224914994703E-13   0.00000000000000E+00   0.00000000000000E+00
      0.00000000000000E+00   2.45810632780270E-09  -1.97157640324796E-16   1.29435439841456E-07   1.31893545972101E-07
     -6.21798534629916E-14  -4.50000000000000E+01  -4.50000000000000E+01   0.00000000000000E+00  -2.04289703901202E-07
      1.26595473585676E-06  -1.33969817344666E-06  -2.78033141491111E-07  -1.72045061531711E-13
      1.60859375000000E-11
      8.00000000000000E-01   8.00000000000000E-01   0.00000000000000E+00   1.11733381048107E-09   6.98626539784839E-07
     -3.40796887391348E-07   3.58946986203972E-07   2.34225657048289E-13   0.00000000000000E+00   0.00000000000000E+00
      0.00000000000000E+00   1.15382213167800E-09  -1.97157277622758E-16   3.07747896120905E-07   3.08901718055426E-07
     -6.21785832008394E-14  -4.50000000000000E+01  -4.50000000000000E+01   0.00000000000000E+00  -4.90171164820386E-07
      6.67071121951566E-07  -8.44748661390576E-07  -6.67848704259396E-07  -1.72047073847450E-13
      2.46289062500000E-11
      8.00000000000000E-01   8.00000000000000E-01   0.00000000000000E+00   1.48753387916442E-10   4.77995789310564E-07
     -8.51253053392696E-09   4.69632012164554E-07   2.34227509997066E-13   0.00000000000000E+00   0.00000000000000E+00
      0.00000000000000E+00  -1.82791145086841E-10  -1.97157171959314E-16   3.57744512084845E-07   3.57561720742601E-07
     -6.21756959664633E-14  -4.50000000000000E+01  -4.50000000000000E+01   0.00000000000000E+00  -5.99314568591112E-07
      1.23607022103477E-09  -2.29115234537076E-07  -8.27193732907153E-07  -1.72051814030602E-13
      3.74433593750000E-11
      8.00000000000000E-01   8.00000000000000E-01   0.00000000000000E+00   1.08221904948647E-10   5.15090239061808E-07
     -7.17639565819763E-09   5.08022065308559E-07   2.34230794003681E-13   0.00000000000000E+00   0.00000000000000E+00
      0.00000000000000E+00  -1.37998188904980E-10  -1.97157242901025E-16   3.19615116219177E-07   3.19477117833115E-07
     -6.21713898090905E-14  -4.50000000000000E+01  -4.50000000000000E+01   0.00000000000000E+00  -5.85233077166642E-07
     -6.25619297724868E-15  -2.42266099718841E-07  -8.27499183141676E-07  -1.72059404194591E-13
      5.66650390625000E-11
      8.00000000000000E-01   8.00000000000000E-01   0.00000000000000E+00   7.39880160249713E-11   5.54150475346986E-07
     -6.21437689699328E-09   5.48010086466018E-07   2.34236169704043E-13   0.00000000000000E+00   0.00000000000000E+00
      0.00000000000000E+00  -9.94479546229196E-11  -1.97157321895331E-16   2.76588015667346E-07   2.76488567515566E-07
     -6.21657171285629E-14  -4.50000000000000E+01  -4.50000000000000E+01   0.00000000000000E+00  -5.64522901508210E-07
     -6.25653395287960E-15  -2.59975746216841E-07  -8.24498653981585E-07  -1.72070452575480E-13
      8.54975585937500E-11
      8.00000000000000E-01   8.00000000000000E-01   0.00000000000000E+00   4.42899996848945E-11   5.90765795673181E-07
     -5.00621707466093E-09   5.85803868598205E-07   2.34244814172695E-13   0.00000000000000E+00   0.00000000000000E+00
      0.00000000000000E+00  -6.54905360717661E-11  -1.97157401940980E-16   2.31949123951000E-07   2.31883633217771E-07
     -6.21584815093940E-14  -4.50000000000000E+01  -4.50000000000000E+01   0.00000000000000E+00  -5.37412059882027E-07
     -6.25689377202601E-15  -2.80275435677057E-07  -8.17687501815977E-07  -1.72086332663302E-13
      1.28746337890625E-10
      8.00000000000000E-01   8.00000000000000E-01   0.00000000000000E+00   2.04549952953192E-11   6.18904320922486E-07
     -3.61809122954069E-09   6.15306684688240E-07   2.34258359433440E-13   0.00000000000000E+00   0.00000000000000E+00
      0.00000000000000E+00  -3.80184675148018E-11  -1.97157473171137E-16   1.90097202481221E-07   1.90059183816548E-07
     -6.21495103052114E-14  -4.50000000000000E+01  -4.50000000000000E+01   0.00000000000000E+00  -5.04534512286351E-07
     -6.25740479070372E-15  -3.00831349961031E-07  -8.05365868504786E-07  -1.72108849128228E-13
      1.61182922363281E-10
      8.00000000000000E-01   8.00000000000000E-01   0.00000000000000E+00   1.06589971607703E-11   6.28010048380893E-07
     -2.83911313981309E-09   6.25181594238240E-07   2.34268650768019E-13   0.00000000000000E+00   0.00000000000000E+00
      0.00000000000000E+00  -2.68889333204335E-11  -1.97157503399244E-16   1.70236697172867E-07   1.70209808042389E-07
     -6.21437636553120E-14  -4.50000000000000E+01  -4.50000000000000E+01   0.00000000000000E+00  -4.84623849694030E-07
     -6.25776921122096E-15  -3.10767546328829E-07  -7.95391402280628E-07  -1.72124887112709E-13
      2.09837799072266E-10
      8.00000000000000E-01   8.00000000000000E-01   0.00000000000000E+00   2.39602333253182E-12   6.32045633224788E-07
     -1.97437305568884E-09   6.30073656192431E-07   2.34283977797425E-13   0.00000000000000E+00   0.00000000000000E+00
      0.00000000000000E+00  -1.78205195901591E-11  -1.97157528373767E-16   1.49800688788718E-07   1.49782868071971E-07
     -6.21361257029429E-14  -4.50000000000000E+01  -4.50000000000000E+01   0.00000000000000E+00  -4.59784301443793E-07
     -6.25829137711231E-15  -3.20072216562317E-07  -7.79856524264401E-07  -1.72147852094483E-13
      2.46328956604004E-10
      8.00000000000000E-01   8.00000000000000E-01   0.00000000000000E+00  -7.60009853282683E-13   6.30849440489903E-07
     -1.50712832857140E-09   6.29341552151478E-07   2.34295301555544E-13   0.00000000000000E+00   0.00000000000000E+00
      0.00000000000000E+00  -1.45643227528678E-11  -1.97157537319041E-16   1.38596998000653E-07   1.38582433480743E-07
     -6.21309639516172E-14  -4.50000000000000E+01  -4.50000000000000E+01   0.00000000000000E+00  -4.43901335784959E-07
     -6.25866638580026E-15  -3.24022643588593E-07  -7.67923985632218E-07  -1.72164337603927E-13
      3.01065692901611E-10
      8.00000000000000E-01   8.00000000000000E-01   0.00000000000000E+00  -3.00945614581329E-12   6.26227099208774E-07
     -1.00714164836336E-09   6.25216948104265E-07   2.34311958766521E-13   0.00000000000000E+00   0.00000000000000E+00
      0.00000000000000E+00  -1.24676851947262E-11  -1.97157543131234E-16   1.24584144586051E-07   1.24571676703699E-07
     -6.21239076059315E-14  -4.50000000000000E+01  -4.50000000000000E+01   0.00000000000000E+00  -4.22773063405107E-07
     -6.25920594871278E-15  -3.27015555143648E-07  -7.49788624807961E-07  -1.72188051160588E-13
      3.42118245124817E-10
      8.00000000000000E-01   8.00000000000000E-01   0.00000000000000E+00  -3.56069927725166E-12   6.21895438538871E-07
     -7.47799578654486E-10   6.21144078260939E-07   2.34324203941575E-13   0.00000000000000E+00   0.00000000000000E+00
      0.00000000000000E+00  -1.21302409250168E-11  -1.97157544757392E-16   1.14961443818390E-07   1.14949313380307E-07
     -6.21190945669344E-14  -4.50000000000000E+01  -4.50000000000000E+01   0.00000000000000E+00  -4.08345893008063E-07
     -6.25959413733929E-15  -3.27747492373589E-07  -7.36093391641246E-07  -1.72205109374639E-13
      4.03697073459625E-10
      8.00000000000000E-01   8.00000000000000E-01   0.00000000000000E+00  -3.54148286528596E-12   6.15506997281181E-07
     -4.80922544738946E-10   6.15022533253577E-07   2.34342236279503E-13   0.00000000000000E+00   0.00000000000000E+00
      0.00000000000000E+00  -1.24952434180170E-11  -1.97157547169850E-16   1.00508891317057E-07   1.00496395876482E-07
     -6.21126096510802E-14  -4.50000000000000E+01  -4.50000000000000E+01   0.00000000000000E+00  -3.88048493057683E-07
     -6.26015209691758E-15  -3.27470429812225E-07  -7.15518929130060E-07  -1.72229626628424E-13
      4.49881194710732E-10
      8.00000000000000E-01   8.00000000000000E-01   0.00000000000000E+00  -3.18545657964053E-12   6.11247801749178E-07
     -3.48393980568170E-10   6.10896222312030E-07   2.34355548289146E-13   0.00000000000000E+00   0.00000000000000E+00
      0.00000000000000E+00  -1.30962781337502E-11  -1.97157550712607E-16   8.92251547113633E-08   8.92120582360720E-08
     -6.21083363556275E-14  -4.50000000000000E+01  -4.50000000000000E+01   0.00000000000000E+00  -3.73518614907561E-07
     -6.26055230091359E-15  -3.26589659379989E-07  -7.00108280548102E-07  -1.72247211933517E-13
      5.19157376587391E-10
      8.00000000000000E-01   8.00000000000000E-01   0.00000000000000E+00  -2.47078227167711E-12   6.06086247360183E-07
     -2.17422255006986E-10   6.05866354322904E-07   2.34375285500570E-13   0.00000000000000E+00   0.00000000000000E+00
      0.00000000000000E+00  -1.41292507143458E-11  -1.97157561077984E-16   7.12229473549001E-08   7.12088179070282E-08
     -6.21029318387118E-14  -4.50000000000000E+01  -4.50000000000000E+01   0.00000000000000E+00  -3.52373381484598E-07
     -6.26112444644396E-15  -3.24701784484209E-07  -6.77075172229932E-07  -1.72272353661857E-13
      5.71114512994885E-10
      8.00000000000000E-01   8.00000000000000E-01   0.00000000000000E+00  -1.90556592433374E-12   6.03216437225523E-07
     -1.55213360792977E-10   6.03059318298805E-07   2.34389974043639E-13   0.00000000000000E+00   0.00000000000000E+00
      0.00000000000000E+00  -1.48813419493800E-11  -1.97157573665986E-16   5.68372472849112E-08   5.68223657458043E-08
     -6.20997156928263E-14  -4.50000000000000E+01  -4.50000000000000E+01   0.00000000000000E+00  -3.36855195593258E-07
     -6.26153187173615E-15  -3.23026482189818E-07  -6.59881684044609E-07  -1.72290258350813E-13
      6.49050217606127E-10
      8.00000000000000E-01   8.00000000000000E-01   0.00000000000000E+00  -1.12823581397818E-12   6.00395302933807E-07
     -9.60820857004877E-11   6.00298092612292E-07   2.34411948055887E-13   0.00000000000000E+00   0.00000000000000E+00
      0.00000000000000E+00  -1.58783357016803E-11  -1.97157601169219E-16   3.39531792737974E-08   3.39373007409381E-08
     -6.20963315844113E-14  -4.50000000000000E+01  -4.50000000000000E+01   0.00000000000000E+00  -3.13917848778334E-07
     -6.26210884909585E-15  -3.20317538312790E-07  -6.34235393353232E-07  -1.72315616471475E-13
      7.07501996064559E-10
      8.00000000000000E-01   8.00000000000000E-01   0.00000000000000E+00  -6.30565345736687E-13   5.99302082875216E-07
     -6.91142245374199E-11   5.99232338085332E-07   2.34428451535849E-13   0.00000000000000E+00   0.00000000000000E+00
      0.00000000000000E+00  -1.64915203728425E-11  -1.97157628685580E-16   1.58997870316304E-08   1.58832953140999E-08
     -6.20949834105780E-14  -4.50000000000000E+01  -4.50000000000000E+01   0.00000000000000E+00  -2.96910252913066E-07
     -6.26251499010283E-15  -3.18205374223852E-07  -6.15115633399433E-07  -1.72333468125270E-13
      7.95179663752206E-10
      8.00000000000000E-01   8.00000000000000E-01   0.00000000000000E+00  -4.48923364954246E-14   5.98955414048432E-07
     -4.42486910051530E-11   5.98911120465091E-07   2.34453362152646E-13   0.00000000000000E+00   0.00000000000000E+00
      0.00000000000000E+00  -1.71886116551479E-11  -1.97157680005595E-16  -1.22780329489935E-08  -1.22952217578063E-08
     -6.20949709365744E-14  -4.50000000000000E+01  -4.50000000000000E+01   0.00000000000000E+00  -2.71626795806692E-07
     -6.26308195249123E-15  -3.14989096637511E-07  -5.86615898707285E-07  -1.72358391216070E-13
      9.26696165283676E-10
      8.00000000000000E-01   8.00000000000000E-01   0.00000000000000E+00   4.53589906970705E-13   6.00383826309040E-07
     -2.55682608360915E-11   6.00358711638111E-07   2.34491292624328E-13   0.00000000000000E+00   0.00000000000000E+00
      0.00000000000000E+00  -1.77113585788268E-11  -1.97157767461706E-16  -5.60904163232179E-08  -5.61081278789545E-08
     -6.20996474638654E-14  -4.50000000000000E+01  -4.50000000000000E+01   0.00000000000000E+00  -2.34110977587260E-07
     -6.26383831839860E-15  -3.10139599908060E-07  -5.44250583759158E-07  -1.72391645160463E-13
      1.02533354143228E-09
      8.00000000000000E-01   8.00000000000000E-01   0.00000000000000E+00   4.96727654868938E-13   6.02152154632786E-07
     -1.88125753515510E-11   6.02133838785089E-07   2.34520290797253E-13   0.00000000000000E+00   0.00000000000000E+00
      0.00000000000000E+00  -1.76531621331453E-11  -1.97157815895142E-16  -8.93512561672163E-08  -8.93689095265072E-08
     -6.21069283960232E-14  -4.50000000000000E+01  -4.50000000000000E+01   0.00000000000000E+00  -2.06253215077370E-07
     -6.26433221366214E-15  -3.06511707916881E-07  -5.12764929258583E-07  -1.72413362401230E-13
      1.17328960565518E-09
      8.00000000000000E-01   8.00000000000000E-01   0.00000000000000E+00  -1.55834199009579E-13   6.03761151559913E-07
     -1.33100729020665E-11   6.03747685652812E-07   2.34564668532357E-13   0.00000000000000E+00   0.00000000000000E+00
      0.00000000000000E+00  -1.65944533891285E-11  -1.97157710932969E-16  -1.37740988762986E-07  -1.37757583413533E-07
     -6.21238532283142E-14  -4.50000000000000E+01  -4.50000000000000E+01   0.00000000000000E+00  -1.64885944124660E-07
     -6.26495648130090E-15  -3.01104151849661E-07  -4.65990102239278E-07  -1.72440815304043E-13
      1.28425665382236E-09
      8.00000000000000E-01   8.00000000000000E-01   0.00000000000000E+00  -1.40277317279062E-12   6.02198245359269E-07
     -1.09878267640835E-11   6.02185854759332E-07   2.34598437798015E-13   0.00000000000000E+00   0.00000000000000E+00
      0.00000000000000E+00  -1.47424080882018E-11  -1.97157258342816E-16  -1.70879328623300E-07  -1.70894071228546E-07
     -6.21410289516465E-14  -4.50000000000000E+01  -4.50000000000000E+01   0.00000000000000E+00  -1.34214270161279E-07
     -6.26533378220959E-15  -2.97077507104174E-07  -4.31291783530787E-07  -1.72457408846368E-13
      1.36748193994775E-09
      8.00000000000000E-01   8.00000000000000E-01   0.00000000000000E+00  -2.90951069446430E-12   5.98038004699313E-07
     -9.73534077532101E-12   5.98025359847843E-07   2.34623793631949E-13   0.00000000000000E+00   0.00000000000000E+00
      0.00000000000000E+00  -1.25730455068454E-11  -1.97156464432429E-16  -1.92489074025338E-07  -1.92501647268001E-07
     -6.21561629197373E-14  -4.50000000000000E+01  -4.50000000000000E+01   0.00000000000000E+00  -1.11449302335688E-07
     -6.26556620003655E-15  -2.94074403978587E-07  -4.05523712579841E-07  -1.72467630712213E-13
      1.49231986913582E-09
      8.00000000000000E-01   8.00000000000000E-01   0.00000000000000E+00  -6.13044167471571E-12   5.84287591461152E-07
     -8.30392499066284E-12   5.84273157094487E-07   2.34661182983668E-13   0.00000000000000E+00   0.00000000000000E+00
      0.00000000000000E+00  -7.90994219080390E-12  -1.97153833431357E-16  -2.16828524616594E-07  -2.16836434755939E-07
     -6.21817412655466E-14  -4.50000000000000E+01  -4.50000000000000E+01   0.00000000000000E+00  -7.78392526685919E-08
     -6.26583475860198E-15  -2.89597463404124E-07  -3.67436722338550E-07  -1.72479441718122E-13
      1.58594831602688E-09
      8.00000000000000E-01   8.00000000000000E-01   0.00000000000000E+00  -9.22531717020424E-12   5.66296142349811E-07
     -7.46433424004182E-12   5.66279452698401E-07   2.34688071483613E-13   0.00000000000000E+00   0.00000000000000E+00
      0.00000000000000E+00  -3.37917275635755E-12  -1.97150003239010E-16  -2.26781335362071E-07  -2.26784714731978E-07
     -6.22024963697375E-14  -4.50000000000000E+01  -4.50000000000000E+01   0.00000000000000E+00  -5.32326119391297E-08
     -6.26597423769626E-15  -2.86262119761321E-07  -3.39494737966425E-07  -1.72485575113876E-13
      1.72639098636346E-09
      8.00000000000000E-01   8.00000000000000E-01   0.00000000000000E+00  -1.43658787003994E-11   5.24401210600043E-07
     -6.44024339063626E-12   5.24380404477952E-07   2.34724829146455E-13   0.00000000000000E+00   0.00000000000000E+00
      0.00000000000000E+00   4.37881603887584E-12  -1.97139076998763E-16  -2.25222354363857E-07  -2.25217975744957E-07
     -6.22342751926938E-14  -4.50000000000000E+01  -4.50000000000000E+01   0.00000000000000E+00  -1.78650519937428E-08
     -6.26608751422128E-15  -2.81297370473166E-07  -2.99162428732996E-07  -1.72490553953760E-13
      1.83172298911590E-09
      8.00000000000000E-01   8.00000000000000E-01   0.00000000000000E+00  -1.79949166070336E-11   4.81058576528343E-07
     -5.80670026265919E-12   4.81034774911473E-07   2.34748319587451E-13   0.00000000000000E+00   0.00000000000000E+00
      0.00000000000000E+00   1.01638327128922E-11  -1.97124901266549E-16  -2.10384272108222E-07  -2.10374108472634E-07
     -6.22571986804037E-14  -4.50000000000000E+01  -4.50000000000000E+01   0.00000000000000E+00   6.94532298096445E-09
     -6.26610049221042E-15  -2.77605983153704E-07  -2.70660666438840E-07  -1.72491120907048E-13
      1.98972099324456E-09
      8.00000000000000E-01   8.00000000000000E-01   0.00000000000000E+00  -2.17008333848622E-11   4.00835796789831E-07
     -5.00861948067709E-12   4.00809087336965E-07   2.34774563752444E-13   0.00000000000000E+00   0.00000000000000E+00
      0.00000000000000E+00   1.69302491123334E-11  -1.97089460440075E-16  -1.68967938316901E-07  -1.68951008264878E-07
     -6.22872086277646E-14  -4.50000000000000E+01  -4.50000000000000E+01   0.00000000000000E+00   4.02687975806869E-08
     -6.26601505052655E-15  -2.72126870386758E-07  -2.31858079072086E-07  -1.72487355124681E-13
      2.10821949634105E-09
      8.00000000000000E-01   8.00000000000000E-01   0.00000000000000E+00  -2.25035664095604E-11   3.33935227201555E-07
     -4.50443090983878E-12   3.33908219204236E-07   2.34786058259399E-13   0.00000000000000E+00   0.00000000000000E+00
      0.00000000000000E+00   1.95890499082803E-11  -1.97048883409107E-16  -1.27427709563161E-07  -1.27408120710302E-07
     -6.23047544701854E-14  -4.50000000000000E+01  -4.50000000000000E+01   0.00000000000000E+00   6.15682286087133E-08
     -6.26587762948133E-15  -2.68068320836770E-07  -2.06500098493934E-07  -1.72481303789213E-13
      2.28596725098579E-09
      8.00000000000000E-01   8.00000000000000E-01   0.00000000000000E+00  -2.04431112417846E-11   2.36091079140367E-07
     -3.86320212816847E-12   2.36066772826997E-07   2.34789513353324E-13   0.00000000000000E+00   0.00000000000000E+00
      0.00000000000000E+00   1.92623900826634E-11  -1.96962053891109E-16  -6.09607923365160E-08  -6.09415301433954E-08
     -6.23214689274263E-14  -4.50000000000000E+01  -4.50000000000000E+01   0.00000000000000E+00   8.69496457539591E-08
     -6.26557643450783E-15  -2.62074882171985E-07  -1.75125242683602E-07  -1.72468044425899E-13
      2.41927806696935E-09
      8.00000000000000E-01   8.00000000000000E-01   0.00000000000000E+00  -1.70487070990434E-11   1.72284416381439E-07
     -3.45571162016139E-12   1.72263911962720E-07   2.34782064473205E-13   0.00000000000000E+00   0.00000000000000E+00
      0.00000000000000E+00   1.63691443518643E-11  -1.96877124379829E-16  -1.56158846811300E-08  -1.55995157336553E-08
     -6.23265703937587E-14  -4.50000000000000E+01  -4.50000000000000E+01   0.00000000000000E+00   1.00997544842724E-07
     -6.26529129779944E-15  -2.57661934806498E-07  -1.56664396229065E-07  -1.72455494079448E-13
      2.61924429094468E-09
      8.00000000000000E-01   8.00000000000000E-01   0.00000000000000E+00  -1.11608775574499E-11   1.00400612680419E-07
     -2.93491341324452E-12   1.00386516889448E-07   2.34758330230885E-13   0.00000000000000E+00   0.00000000000000E+00
      0.00000000000000E+00   1.03831355912970E-11  -1.96726559749023E-16   3.52597083172903E-08   3.52700912561550E-08
     -6.23245418093530E-14  -4.50000000000000E+01  -4.50000000000000E+01   0.00000000000000E+00   1.15523833158866E-07
     -6.26479809220959E-15  -2.51180435039672E-07  -1.35656608145603E-07  -1.72433788421532E-13
      2.76921895892618E-09
      8.00000000000000E-01   8.00000000000000E-01   0.00000000000000E+00  -7.27062627951596E-12   6.51965212878484E-08
     -2.60194692581671E-12   6.51866487146431E-08   2.34733485896994E-13   0.00000000000000E+00   0.00000000000000E+00
      0.00000000000000E+00   6.12197006112785E-12  -1.96604888702751E-16   5.86183182031810E-08   5.86244399766372E-08
     -6.23175697159838E-14  -4.50000000000000E+01  -4.50000000000000E+01   0.00000000000000E+00   1.22603066965960E-07
     -6.26439194237020E-15  -2.46414149392849E-07  -1.23811088691280E-07  -1.72415916181011E-13
      2.88169995991231E-09
      8.00000000000000E-01   8.00000000000000E-01   0.00000000000000E+00  -5.04592014295552E-12   4.74917788904081E-08
     -2.37858715241368E-12   4.74843543831127E-08   2.34712402458714E-13   0.00000000000000E+00   0.00000000000000E+00
      0.00000000000000E+00   3.57068943539889E-12  -1.96514658337636E-16   6.88776617429830E-08   6.88812322359037E-08
     -6.23105006951077E-14  -4.50000000000000E+01  -4.50000000000000E+01   0.00000000000000E+00   1.26505163229404E-07
     -6.26407343573786E-15  -2.42870743584347E-07  -1.16365586619016E-07  -1.72401901763606E-13
      2.92388033528210E-09
      8.00000000000000E-01   8.00000000000000E-01   0.00000000000000E+00  -4.36247837004425E-12   4.23968829880250E-08
     -2.29999692963186E-12   4.23902205127253E-08   2.34704131338467E-13   0.00000000000000E+00   0.00000000000000E+00
      0.00000000000000E+00   2.78393232927846E-12  -1.96481819550227E-16   7.14067340046658E-08   7.14095177405133E-08
     -6.23075919127796E-14  -4.50000000000000E+01  -4.50000000000000E+01   0.00000000000000E+00   1.27743593087202E-07
     -6.26395155979498E-15  -2.41543325076490E-07  -1.13799738253239E-07  -1.72396539425687E-13
      2.95551561680945E-09
      8.00000000000000E-01   8.00000000000000E-01   0.00000000000000E+00  -3.90285631434551E-12   3.90345843674115E-08
     -2.24277244717508E-12   3.90284387386500E-08   2.34697832479676E-13   0.00000000000000E+00   0.00000000000000E+00
      0.00000000000000E+00   2.24893849885845E-12  -1.96457705198259E-16   7.29073268613809E-08   7.29095756034221E-08
     -6.23053480066310E-14  -4.50000000000000E+01  -4.50000000000000E+01   0.00000000000000E+00   1.28608386514553E-07
     -6.26385939627471E-15  -2.40546394592766E-07  -1.11938014342072E-07  -1.72392484473046E-13
      2.96737884738221E-09
      8.00000000000000E-01   8.00000000000000E-01   0.00000000000000E+00  -3.74058479057578E-12   3.78669523421354E-08
     -2.22168220836924E-12   3.78609900751364E-08   2.34695452041299E-13   0.00000000000000E+00   0.00000000000000E+00
      0.00000000000000E+00   2.07443835155349E-12  -1.96448788107500E-16   7.33892315992464E-08   7.33913058411492E-08
     -6.23044951295047E-14  -4.50000000000000E+01  -4.50000000000000E+01   0.00000000000000E+00   1.28919748609253E-07
     -6.26382467645962E-15  -2.40172038261714E-07  -1.11252295916286E-07  -1.72390956911794E-13
      2.98517369324134E-09
      8.00000000000000E-01   8.00000000000000E-01   0.00000000000000E+00  -3.51157095316851E-12   3.62043658608300E-08
     -2.19041576234709E-12   3.61986638741145E-08   2.34691864692617E-13   0.00000000000000E+00   0.00000000000000E+00
      0.00000000000000E+00   1.79745172075062E-12  -1.96435550087416E-16   7.40348879581346E-08   7.40366852134198E-08
     -6.23032059446523E-14  -4.50000000000000E+01  -4.50000000000000E+01   0.00000000000000E+00   1.29374457397293E-07
     -6.26377244123491E-15  -2.39609800221055E-07  -1.10235349087534E-07  -1.72388658747966E-13
      3.01186596203004E-09
      8.00000000000000E-01   8.00000000000000E-01   0.00000000000000E+00  -3.18949139620935E-12   3.38986577460660E-08
     -2.14433094465695E-12   3.38933239237252E-08   2.34686449791956E-13   0.00000000000000E+00   0.00000000000000E+00
      0.00000000000000E+00   1.41438560040963E-12  -1.96416017870425E-16   7.48394904023155E-08   7.48409045914998E-08
     -6.23012531290638E-14  -4.50000000000000E+01  -4.50000000000000E+01   0.00000000000000E+00   1.30030259841404E-07
     -6.26369375011326E-15  -2.38764482092935E-07  -1.08734228515225E-07  -1.72385196662893E-13
      3.05190436521309E-09
      8.00000000000000E-01   8.00000000000000E-01   0.00000000000000E+00  -2.76043860781987E-12   3.08257969547012E-08
     -2.07698822325791E-12   3.08209595278701E-08   2.34678262707653E-13   0.00000000000000E+00   0.00000000000000E+00
      0.00000000000000E+00   9.13566498692024E-13  -1.96387495612014E-16   7.57095455974562E-08   7.57104589675674E-08
     -6.22982909550977E-14  -4.50000000000000E+01  -4.50000000000000E+01   0.00000000000000E+00   1.30959315349925E-07
     -6.26357498879751E-15  -2.37490727581788E-07  -1.06531418495438E-07  -1.72379971752555E-13
      3.11196196998766E-09
      8.00000000000000E-01   8.00000000000000E-01   0.00000000000000E+00  -2.21761007242473E-12   2.69674620608466E-08
     -1.97983526258275E-12   2.69632646155116E-08   2.34665870918580E-13   0.00000000000000E+00   0.00000000000000E+00
      0.00000000000000E+00   2.65733563044419E-13  -1.96346581398589E-16   7.63565649131258E-08   7.63568304503422E-08
     -6.22938031081689E-14  -4.50000000000000E+01  -4.50000000000000E+01   0.00000000000000E+00   1.32241950982611E-07
     -6.26339532859897E-15  -2.35562039785070E-07  -1.03320095065854E-07  -1.72372067810412E-13
      3.20204837714952E-09
      8.00000000000000E-01   8.00000000000000E-01   0.00000000000000E+00  -1.59922532643467E-12   2.25277843350884E-08
     -1.84232201634397E-12   2.25243427877456E-08   2.34647130495439E-13   0.00000000000000E+00   0.00000000000000E+00
      0.00000000000000E+00  -4.68601769424506E-13  -1.96289689874936E-16   7.61419310577914E-08   7.61414622597322E-08
     -6.22870534989615E-14  -4.50000000000000E+01  -4.50000000000000E+01   0.00000000000000E+00   1.33943280635123E-07
     -6.26312276108394E-15  -2.32609079419479E-07  -9.86658050474782E-08  -1.72360076996479E-13
      3.33717798789231E-09
      8.00000000000000E-01   8.00000000000000E-01   0.00000000000000E+00  -9.99694049348303E-13   1.79966066783395E-08
     -1.65314420216925E-12   1.79939538400880E-08   2.34618928529452E-13   0.00000000000000E+00   0.00000000000000E+00