DF-ISE text

Info {
  version   = 1.0
  type      = xyplot
  datasets  = [
    "time"
    "Ntop OuterVoltage" "Ntop InnerVoltage" "Ntop QuasiFermiPotential" "Ntop DisplacementCurrent" "Ntop eCurrent"
    "Ntop hCurrent" "Ntop TotalCurrent" "Ntop Charge" "Ptop OuterVoltage" "Ptop InnerVoltage"
    "Ptop QuasiFermiPotential" "Ptop DisplacementCurrent" "Ptop eCurrent" "Ptop hCurrent" "Ptop TotalCurrent"
    "Ptop Charge" "Pbot OuterVoltage" "Pbot InnerVoltage" "Pbot QuasiFermiPotential" "Pbot DisplacementCurrent"
    "Pbot eCurrent" "Pbot hCurrent" "Pbot TotalCurrent" "Pbot Charge" ]
  functions = [
    Time
    OuterVoltage InnerVoltage QuasiFermiPotential DisplacementCurrent eCurrent
    hCurrent TotalCurrent Charge OuterVoltage InnerVoltage
    QuasiFermiPotential DisplacementCurrent eCurrent hCurrent TotalCurrent
    Charge OuterVoltage InnerVoltage QuasiFermiPotential DisplacementCurrent
    eCurrent hCurrent TotalCurrent Charge ]
}

Data {
      5.00000000000000E-13
      8.00000000000000E-01   8.00000000000000E-01   0.00000000000000E+00   3.14099359705510E-15   2.16989020488741E-13
      2.07480348506230E-17   2.20150762120647E-13   1.66264157121324E-13   0.00000000000000E+00   0.00000000000000E+00
      0.00000000000000E+00  -1.12087319476987E-13  -1.97164502217201E-16   7.92427038812379E-12   7.81198590414458E-12
     -7.55973310309558E-14  -1.10000000000000E+01  -1.10000000000000E+01   0.00000000000000E+00  -2.12280694222654E-13
      1.45919141437589E-11  -2.24117701158014E-11  -8.03213666626523E-12  -9.06668260903683E-14
      1.25000000000000E-12
      8.00000000000000E-01   8.00000000000000E-01   0.00000000000000E+00   2.85783592313014E-14   5.41718152647985E-13
      2.07480347998112E-17   5.70317259914086E-13   1.66264157120120E-13   0.00000000000000E+00   0.00000000000000E+00
      0.00000000000000E+00  -3.38576265159958E-14  -1.97164502196850E-16   8.99647181163950E-12   8.96241702062130E-12
     -7.55973310292155E-14  -1.10000000000000E+01  -1.10000000000000E+01   0.00000000000000E+00  -1.27670366705736E-12
      6.73310142154144E-11  -7.55870448288924E-11  -9.53273428053535E-12  -9.06668260909046E-14
      2.37500000000000E-12
      8.00000000000000E-01   8.00000000000000E-01   0.00000000000000E+00   1.90414880198436E-13   4.45765543801914E-12
      2.07480346175847E-17   4.64809106625219E-12   1.66264157102333E-13   0.00000000000000E+00   0.00000000000000E+00
      0.00000000000000E+00   1.01930828723177E-12  -1.97164502223501E-16   2.17299424353494E-11   2.27490535580789E-11
     -7.55973310034219E-14  -1.10000000000000E+01  -1.10000000000000E+01   0.00000000000000E+00  -1.39811166372610E-11
      5.56953124225944E-10  -5.70369152213014E-10  -2.73971446243313E-11  -9.06668260989114E-14
      4.06250000000000E-12
      8.00000000000000E-01   8.00000000000000E-01   0.00000000000000E+00   2.85570075070096E-12   9.12940575008038E-11
      2.07480330387635E-17   9.41497789995378E-11   1.66264156576001E-13   0.00000000000000E+00   0.00000000000000E+00
      0.00000000000000E+00   1.46730618306431E-11  -1.97164503023404E-16   3.15620804195942E-10   3.30293668862082E-10
     -7.55973302360525E-14  -1.10000000000000E+01  -1.10000000000000E+01   0.00000000000000E+00  -2.96899940785240E-10
      8.44466507177171E-09  -8.57220857884809E-09  -4.24443447861619E-10  -9.06668263399481E-14
      6.59375000000000E-12
      8.00000000000000E-01   8.00000000000000E-01   0.00000000000000E+00   5.68577739669483E-11   2.67858888885936E-09
      2.07481621137534E-17   2.73544668357447E-09   1.66264134103373E-13   0.00000000000000E+00   0.00000000000000E+00
      0.00000000000000E+00   2.96326775548353E-10  -1.97164534725958E-16   9.28216962016576E-09   9.57849619854958E-09
     -7.55972972430513E-14  -1.10000000000000E+01  -1.10000000000000E+01   0.00000000000000E+00  -8.78788204860299E-09
      1.68848891750328E-07  -1.72374952583850E-07  -1.23139428821241E-08  -9.06668368603220E-14
      1.03906250000000E-11
      8.00000000000000E-01   8.00000000000000E-01   0.00000000000000E+00   4.75317090206901E-10   3.63535897398212E-08
      2.07462736391261E-17   3.68289068507744E-08   1.66263660953830E-13   0.00000000000000E+00   0.00000000000000E+00
      0.00000000000000E+00   2.47612466125196E-09  -1.97164138970449E-16   1.28001432015381E-07   1.30477556479468E-07
     -7.55965971696551E-14  -1.10000000000000E+01  -1.10000000000000E+01   0.00000000000000E+00  -1.19689880852163E-07
      1.40296282743167E-06  -1.45057940990975E-06  -1.67306463330243E-07  -9.06670637841753E-14
      1.60859375000000E-11
      8.00000000000000E-01   8.00000000000000E-01   0.00000000000000E+00   2.76165902380337E-10   8.98285479012862E-08
      2.07483400414594E-17   9.01047138244149E-08   1.66261284409192E-13   0.00000000000000E+00   0.00000000000000E+00
      0.00000000000000E+00   1.29423697808546E-09  -1.97163182492172E-16   3.15883946864824E-07   3.17178183645746E-07
     -7.55930292839994E-14  -1.10000000000000E+01  -1.10000000000000E+01   0.00000000000000E+00  -2.91612967563001E-07
      7.39264969916463E-07  -8.54934899823624E-07  -4.07282897470161E-07  -9.06682551251926E-14
      2.46289062500000E-11
      8.00000000000000E-01   8.00000000000000E-01   0.00000000000000E+00   3.20223632326955E-11   1.17590201224490E-07
      2.07484896356607E-17   1.17622223608472E-07   1.66256015704086E-13   0.00000000000000E+00   0.00000000000000E+00
      0.00000000000000E+00  -2.48438418360304E-11  -1.97162850298200E-16   3.91181973514766E-07   3.91157129475767E-07
     -7.55849166839756E-14  -1.10000000000000E+01  -1.10000000000000E+01   0.00000000000000E+00  -3.61950327775955E-07
      1.36984759795671E-09  -1.48198872906240E-07  -5.08779353084239E-07  -9.06710990201100E-14
      3.74433593750000E-11
      8.00000000000000E-01   8.00000000000000E-01   0.00000000000000E+00   2.64253693867834E-11   1.27429943371684E-07
      2.07484020193331E-17   1.27456368761819E-07   1.66248460209172E-13   0.00000000000000E+00   0.00000000000000E+00
      0.00000000000000E+00  -3.35695862154233E-11  -1.97161222064537E-16   3.84112026711085E-07   3.84078456927708E-07
     -7.55727441511931E-14  -1.10000000000000E+01  -1.10000000000000E+01   0.00000000000000E+00  -3.58359062320780E-07
     -3.59536952956787E-15  -1.53175759773378E-07  -5.11534825689527E-07  -9.06757160579792E-14
      5.66650390625000E-11
      8.00000000000000E-01   8.00000000000000E-01   0.00000000000000E+00   2.38727437405115E-11   1.40307940426394E-07
      2.07488841937815E-17   1.40331813190883E-07   1.66239115067460E-13   0.00000000000000E+00   0.00000000000000E+00
      0.00000000000000E+00  -3.62169355451520E-11  -1.97111366972185E-16   3.71059145305365E-07   3.71022928172708E-07
     -7.55565885396608E-14  -1.10000000000000E+01  -1.10000000000000E+01   0.00000000000000E+00  -3.50220776866441E-07
     -3.75322938367358E-15  -1.61133960743922E-07  -5.11354741363592E-07  -9.06825265277997E-14
      8.54975585937500E-11
      8.00000000000000E-01   8.00000000000000E-01   0.00000000000000E+00   2.36398706093497E-11   1.58594279051778E-07
      2.07480658073321E-17   1.58617918943135E-07   1.66228289695870E-13   0.00000000000000E+00   0.00000000000000E+00
      0.00000000000000E+00  -4.06746344548054E-11  -1.96068049424070E-16   3.49746633287596E-07   3.49705958457074E-07
     -7.55358483549563E-14  -1.10000000000000E+01  -1.10000000000000E+01   0.00000000000000E+00  -3.37527457135181E-07
     -3.86021532534049E-15  -1.70796416404813E-07  -5.08323877400209E-07  -9.06924413409132E-14
      1.28746337890625E-10
      8.00000000000000E-01   8.00000000000000E-01   0.00000000000000E+00   2.62757438734190E-11   1.87669250284052E-07
      2.07485340199885E-17   1.87695526048674E-07   1.66216823367386E-13   0.00000000000000E+00   0.00000000000000E+00
      0.00000000000000E+00  -4.70110300111026E-11  -1.79249698727303E-16   3.13381428419185E-07   3.13334417209924E-07
     -7.55101826217969E-14  -1.10000000000000E+01  -1.10000000000000E+01   0.00000000000000E+00  -3.19257409350017E-07
     -3.92071098839765E-15  -1.81772529987869E-07  -5.01029943258598E-07  -9.07066407455888E-14
      1.93619506835937E-10
      8.00000000000000E-01   8.00000000000000E-01   0.00000000000000E+00   2.80188617829703E-11   2.35324910615923E-07
      2.07483781761493E-17   2.35352929498454E-07   1.66206751435256E-13   0.00000000000000E+00   0.00000000000000E+00
      0.00000000000000E+00  -5.00873255679328E-11   1.68872625110030E-17   2.53093455405632E-07   2.53043368096951E-07
     -7.54801816559039E-14  -1.10000000000000E+01  -1.10000000000000E+01   0.00000000000000E+00  -2.95537001023451E-07
     -3.94584657965154E-15  -1.92859292626109E-07  -4.88396297595406E-07  -9.07265697793520E-14
      2.42274383544922E-10
      8.00000000000000E-01   8.00000000000000E-01   0.00000000000000E+00   2.70379902225683E-11   2.71321076291391E-07
      2.07487889990918E-17   2.71348114302362E-07   1.66203493028215E-13   0.00000000000000E+00   0.00000000000000E+00
      0.00000000000000E+00  -4.88744779166506E-11   5.01431452571434E-16   2.07325916743985E-07   2.07277042767500E-07
     -7.54629144073024E-14  -1.10000000000000E+01  -1.10000000000000E+01   0.00000000000000E+00  -2.80461265633965E-07
     -3.95018135866394E-15  -1.98163887485716E-07  -4.78625157069862E-07  -9.07405786209129E-14
      3.15256698608398E-10
      8.00000000000000E-01   8.00000000000000E-01   0.00000000000000E+00   2.34382268273803E-11   3.20774947414854E-07
      2.07489410609145E-17   3.20798385662430E-07   1.66204089075722E-13   0.00000000000000E+00   0.00000000000000E+00
      0.00000000000000E+00  -4.46982147483805E-11   2.33054551088881E-15   1.42427296485069E-07   1.42382600600866E-07
     -7.54437851361110E-14  -1.10000000000000E+01  -1.10000000000000E+01   0.00000000000000E+00  -2.60238362508220E-07
     -3.95229475444820E-15  -2.02942619802782E-07  -4.63180986263297E-07  -9.07603039396112E-14
      3.69993434906006E-10
      8.00000000000000E-01   8.00000000000000E-01   0.00000000000000E+00   1.96506303678701E-11   3.52324394268136E-07
      2.07490588503499E-17   3.52344044919253E-07   1.66208107385789E-13   0.00000000000000E+00   0.00000000000000E+00
      0.00000000000000E+00  -4.02665427577942E-11   4.91027376391150E-15   9.83167045036226E-08   9.82764428711385E-08
     -7.54339526981675E-14  -1.10000000000000E+01  -1.10000000000000E+01   0.00000000000000E+00  -2.45864978246718E-07
     -3.95295158110912E-15  -2.04755505590722E-07  -4.50620487790391E-07  -9.07741546876215E-14
      4.52098539352417E-10
      8.00000000000000E-01   8.00000000000000E-01   0.00000000000000E+00   1.33889954699053E-11   3.88555841626809E-07
      2.07491496125228E-17   3.88569230643028E-07   1.66218382486367E-13   0.00000000000000E+00   0.00000000000000E+00
      0.00000000000000E+00  -3.27431294636456E-11   1.11675606737130E-14   4.15008267152647E-08   4.14680947533618E-08
     -7.54249233907521E-14  -1.10000000000000E+01  -1.10000000000000E+01   0.00000000000000E+00  -2.24344523647629E-07
     -3.95369449675733E-15  -2.05692797795067E-07  -4.30037325396390E-07  -9.07934590956145E-14
      5.13677367687225E-10
      8.00000000000000E-01   8.00000000000000E-01   0.00000000000000E+00   8.92891061327388E-12   4.06877109805243E-07
      2.07492721925601E-17   4.06886038736606E-07   1.66228552092117E-13   0.00000000000000E+00   0.00000000000000E+00
      0.00000000000000E+00  -2.72518096289399E-11   1.78371036121701E-14   6.52289520375512E-09   6.49566123122979E-09
     -7.54217825699292E-14  -1.10000000000000E+01  -1.10000000000000E+01   0.00000000000000E+00  -2.07934301565697E-07
     -3.95417844435901E-15  -2.05447394447961E-07  -4.13381699967837E-07  -9.08067695221881E-14
      5.59861488938332E-10
      8.00000000000000E-01   8.00000000000000E-01   0.00000000000000E+00   6.00506377313838E-12   4.16079622465792E-07
      2.07493051178477E-17   4.16085627550315E-07   1.66237125874825E-13   0.00000000000000E+00   0.00000000000000E+00
      0.00000000000000E+00  -2.35979041653423E-11   2.39363557342693E-14  -1.57166752966124E-08  -1.57402492644220E-08
     -7.54210415179128E-14  -1.10000000000000E+01  -1.10000000000000E+01   0.00000000000000E+00  -1.95430499937213E-07
     -3.95451556673721E-15  -2.04914874394164E-07  -4.00345378285893E-07  -9.08160843569121E-14
      6.29137670814991E-10
      8.00000000000000E-01   8.00000000000000E-01   0.00000000000000E+00   2.45549000900756E-12   4.23860384770596E-07
      2.07493131936485E-17   4.23862840281354E-07   1.66250968679966E-13   0.00000000000000E+00   0.00000000000000E+00
      0.00000000000000E+00  -1.90849419236287E-11   3.47281188098542E-14  -4.36749068018841E-08  -4.36939570156889E-08
     -7.54220031618895E-14  -1.10000000000000E+01  -1.10000000000000E+01   0.00000000000000E+00  -1.76428153574902E-07
     -3.95498124148102E-15  -2.03740725735782E-07  -3.80168883265666E-07  -9.08289655180752E-14
      7.33051943629980E-10
      8.00000000000000E-01   8.00000000000000E-01   0.00000000000000E+00  -1.13166934565635E-12   4.25542567591475E-07
      2.07493257762708E-17   4.25541435942879E-07   1.66272904077903E-13   0.00000000000000E+00   0.00000000000000E+00
      0.00000000000000E+00  -1.43280593058602E-11   5.40703992635588E-14  -7.63902146615583E-08  -7.64044886504649E-08
     -7.54270981921596E-14  -1.10000000000000E+01  -1.10000000000000E+01   0.00000000000000E+00  -1.47690451659319E-07
     -3.95558960284103E-15  -2.01446491677505E-07  -3.49136947292414E-07  -9.08458058857440E-14
      8.10987648241222E-10
      8.00000000000000E-01   8.00000000000000E-01   0.00000000000000E+00  -2.77311646341627E-12   4.21462874614492E-07
      2.07493179306999E-17   4.21460101518778E-07   1.66289658603288E-13   0.00000000000000E+00   0.00000000000000E+00
      0.00000000000000E+00  -1.19552493854327E-11   7.04517264174294E-14  -9.57262817316047E-08  -9.57381665292637E-08
     -7.54331789811872E-14  -1.10000000000000E+01  -1.10000000000000E+01   0.00000000000000E+00  -1.26243742827190E-07
     -3.95597495891725E-15  -1.99478188206350E-07  -3.25721934989515E-07  -9.08564796221003E-14
      9.27891205158085E-10
      8.00000000000000E-01   8.00000000000000E-01   0.00000000000000E+00  -4.34105266259946E-12   4.10309153058700E-07
      2.07492830121498E-17   4.10304812026786E-07   1.66314447865176E-13   0.00000000000000E+00   0.00000000000000E+00
      0.00000000000000E+00  -9.30224016427247E-12   9.63794186466552E-14  -1.19117983319254E-07  -1.19127189180000E-07
     -7.54450520004135E-14  -1.10000000000000E+01  -1.10000000000000E+01   0.00000000000000E+00  -9.48358226208045E-08
     -3.95644097789539E-15  -1.96341796269541E-07  -2.91177622846787E-07  -9.08693958647631E-14
      1.01556887284573E-09
      8.00000000000000E-01   8.00000000000000E-01   0.00000000000000E+00  -5.22395130773141E-12   3.99107595385284E-07
      2.07492280280664E-17   3.99102371454726E-07   1.66332426907258E-13   0.00000000000000E+00   0.00000000000000E+00
      0.00000000000000E+00  -7.48193190515498E-12   1.15657592074437E-13  -1.32936238894617E-07  -1.32943605168930E-07
     -7.54557105534001E-14  -1.10000000000000E+01  -1.10000000000000E+01   0.00000000000000E+00  -7.22388890670783E-08
     -3.95670491402566E-15  -1.93919873262013E-07  -2.66158766285796E-07  -9.08767163538585E-14
      1.14708537437720E-09
      8.00000000000000E-01   8.00000000000000E-01   0.00000000000000E+00  -6.56832635099462E-12   3.78367003677101E-07
      2.07492280081253E-17   3.78360435371499E-07   1.66357851521218E-13   0.00000000000000E+00   0.00000000000000E+00
      0.00000000000000E+00  -4.39303683670199E-12   1.41804696283638E-13  -1.47524705952382E-07  -1.47528957184523E-07
     -7.54737341732179E-14  -1.10000000000000E+01  -1.10000000000000E+01   0.00000000000000E+00  -4.05708050464600E-08
     -3.95697155160494E-15  -1.90260669183545E-07  -2.30831478186976E-07  -9.08841173479998E-14
      1.34436012667441E-09
      8.00000000000000E-01   8.00000000000000E-01   0.00000000000000E+00  -8.73815715772789E-12   3.37804816811609E-07
      2.07490633154869E-17   3.37796078675200E-07   1.66391112238146E-13   0.00000000000000E+00   0.00000000000000E+00
      0.00000000000000E+00   9.86517293339930E-13   1.70055553325478E-13  -1.53496239077898E-07  -1.53495082505051E-07
     -7.55031139797112E-14  -1.10000000000000E+01  -1.10000000000000E+01   0.00000000000000E+00   4.91094557227410E-10
     -3.95711108870967E-15  -1.84792086770265E-07  -1.84300996170149E-07  -9.08879982584342E-14
      1.49231619089731E-09
      8.00000000000000E-01   8.00000000000000E-01   0.00000000000000E+00  -1.01017979807674E-11   3.00215551523490E-07
      2.07489548442499E-17   3.00205449746258E-07   1.66411055449809E-13   0.00000000000000E+00   0.00000000000000E+00
      0.00000000000000E+00   4.82747999386598E-12   1.80607268870656E-13  -1.44971895469655E-07  -1.44966887382392E-07
     -7.55250112062343E-14  -1.10000000000000E+01  -1.10000000000000E+01   0.00000000000000E+00   2.54767189388089E-08
     -3.95704045302662E-15  -1.80715277345635E-07  -1.55238562363866E-07  -9.08860442435746E-14
      1.71425028723167E-09
      8.00000000000000E-01   8.00000000000000E-01   0.00000000000000E+00  -1.08332918692796E-11   2.37167461172691E-07
      2.07488038783641E-17   2.37156627901570E-07   1.66431034503420E-13   0.00000000000000E+00   0.00000000000000E+00
      0.00000000000000E+00   8.49534749590789E-12   1.79921905545121E-13  -1.16157013576152E-07  -1.16148338306750E-07
     -7.55538610111792E-14  -1.10000000000000E+01  -1.10000000000000E+01   0.00000000000000E+00   5.35461878279434E-08
     -3.95672060492582E-15  -1.74554473466043E-07  -1.21008289594820E-07  -9.08771734922404E-14
      1.79747557335705E-09
      8.00000000000000E-01   8.00000000000000E-01   0.00000000000000E+00  -1.06252015944451E-11   2.13074591622016E-07
      2.07487080231451E-17   2.13063966441171E-07   1.66435267900671E-13   0.00000000000000E+00   0.00000000000000E+00
      0.00000000000000E+00   9.04022847987024E-12   1.75324475683414E-13  -1.02276160966719E-07  -1.02266945413764E-07
     -7.55628822306562E-14  -1.10000000000000E+01  -1.10000000000000E+01   0.00000000000000E+00   6.13983128944268E-08
     -3.95654804416884E-15  -1.72195329965286E-07  -1.10797021027407E-07  -9.08723856700146E-14
      1.82868505565407E-09
      8.00000000000000E-01   8.00000000000000E-01   0.00000000000000E+00  -1.04859126624491E-11   2.04192139509914E-07
      2.07487118875249E-17   2.04181653618000E-07   1.66436395165307E-13   0.00000000000000E+00   0.00000000000000E+00
      0.00000000000000E+00   9.13054182512201E-12   1.73115140751750E-13  -9.69033717398032E-08  -9.68940680828373E-08
     -7.55659667006564E-14  -1.10000000000000E+01  -1.10000000000000E+01   0.00000000000000E+00   6.40107358188745E-08
     -3.95647750865506E-15  -1.71298317397559E-07  -1.07287585535162E-07  -9.08704284646506E-14
      1.87549927909960E-09
      8.00000000000000E-01   8.00000000000000E-01   0.00000000000000E+00  -1.02156052317866E-11   1.91124765146649E-07
      2.07486604587962E-17   1.91114549562166E-07   1.66437627367920E-13   0.00000000000000E+00   0.00000000000000E+00
      0.00000000000000E+00   9.14056139749921E-12   1.69376693036133E-13  -8.88038089681224E-08  -8.87944990300319E-08
     -7.55702806507448E-14  -1.10000000000000E+01  -1.10000000000000E+01   0.00000000000000E+00   6.76166533750626E-08
     -3.95636645007493E-15  -1.69936699950831E-07  -1.02320050532134E-07  -9.08673467171763E-14
      1.94572061426789E-09
      8.00000000000000E-01   8.00000000000000E-01   0.00000000000000E+00  -9.69839649362173E-12   1.72261163506184E-07
      2.07485805535122E-17   1.72251465130439E-07   1.66438479103064E-13   0.00000000000000E+00   0.00000000000000E+00
      0.00000000000000E+00   8.94082556700924E-12   1.62948642332783E-13  -7.67823149333404E-08  -7.67732111591311E-08
     -7.55760497471454E-14  -1.10000000000000E+01  -1.10000000000000E+01   0.00000000000000E+00   7.23725216165167E-08
     -3.95618924848344E-15  -1.67850771631635E-07  -9.54782539713074E-08  -9.08624293559186E-14
      2.05105261702033E-09
      8.00000000000000E-01   8.00000000000000E-01   0.00000000000000E+00  -8.74027835745498E-12   1.46048012007523E-07
      2.07485189061427E-17   1.46039271749914E-07   1.66437666421805E-13   0.00000000000000E+00   0.00000000000000E+00
      0.00000000000000E+00   8.24995694577373E-12   1.51893380288712E-13  -5.96470039803250E-08  -5.96386021299990E-08
     -7.55831735553479E-14  -1.10000000000000E+01  -1.10000000000000E+01   0.00000000000000E+00   7.81972088996453E-08
     -3.95590326572606E-15  -1.64597874563657E-07  -8.64006696199152E-08  -9.08544928664574E-14
      2.20905062114899E-09
      8.00000000000000E-01   8.00000000000000E-01   0.00000000000000E+00  -7.11508142642305E-12   1.12236512700970E-07
      2.07484253652255E-17   1.12229397640292E-07   1.66432366942647E-13   0.00000000000000E+00   0.00000000000000E+00
      0.00000000000000E+00   6.69199795666431E-12   1.33432815850088E-13  -3.73404954611399E-08  -3.73336700303674E-08
     -7.55907412980999E-14  -1.10000000000000E+01  -1.10000000000000E+01   0.00000000000000E+00   8.44516218137332E-08
     -3.95543965072430E-15  -1.59347345468219E-07  -7.48957276099251E-08  -9.08416256445472E-14
      2.44604762734198E-09
      8.00000000000000E-01   8.00000000000000E-01   0.00000000000000E+00  -4.80668546809020E-12   7.42172850947143E-08
      2.07482994091031E-17   7.42124784299945E-08   1.66417541825645E-13   0.00000000000000E+00   0.00000000000000E+00
      0.00000000000000E+00   4.13244485998864E-12   1.04952400342009E-13  -1.32593311562934E-08  -1.32550937590331E-08
     -7.55965629742544E-14  -1.10000000000000E+01  -1.10000000000000E+01   0.00000000000000E+00   8.93830989121490E-08
     -3.95469589246034E-15  -1.50340479628414E-07  -6.09573846709613E-08  -9.08209788513907E-14
      2.62379538198672E-09
      8.00000000000000E-01   8.00000000000000E-01   0.00000000000000E+00  -3.42974731555877E-12   5.45165652212473E-08
      2.07482483345408E-17   5.45131354946800E-08   1.66402875047540E-13   0.00000000000000E+00   0.00000000000000E+00
      0.00000000000000E+00   2.52239361298153E-12   8.49859845484969E-14  -2.22632830415283E-09  -2.22372092455530E-09
     -7.55978736999931E-14  -1.10000000000000E+01  -1.10000000000000E+01   0.00000000000000E+00   9.02063666666816E-08
     -3.95412054044015E-15  -1.42495777282686E-07  -5.22894145701247E-08  -9.08050013475476E-14
      2.89041701395383E-09
      8.00000000000000E-01   8.00000000000000E-01   0.00000000000000E+00  -2.01735348885387E-12   3.51025223937463E-08
      2.07481812790419E-17   3.51005050610056E-08   1.66378497856853E-13   0.00000000000000E+00   0.00000000000000E+00
      0.00000000000000E+00   8.95011998381338E-13   5.95215500780836E-14   6.07601390615277E-09   6.07696843970123E-09
     -7.55972514306453E-14  -1.10000000000000E+01  -1.10000000000000E+01   0.00000000000000E+00   8.76238399064098E-08
     -3.95326563250146E-15  -1.28801309453851E-07  -4.11774735007068E-08  -9.07812464262086E-14
      3.09038323792916E-09
      8.00000000000000E-01   8.00000000000000E-01   0.00000000000000E+00  -1.37065273800086E-12   2.59994908802697E-08
      2.07481416518498E-17   2.59981202482799E-08   1.66359974350137E-13   0.00000000000000E+00   0.00000000000000E+00
      0.00000000000000E+00   2.11057151366730E-13   4.43724375280900E-14   8.03578862110761E-09   8.03604405069651E-09
     -7.55958130839532E-14  -1.10000000000000E+01  -1.10000000000000E+01   0.00000000000000E+00   8.30877351732908E-08
     -3.95265125279358E-15  -1.17121895519616E-07  -3.40341642989764E-08  -9.07641612661840E-14
      3.39033257389216E-09
      8.00000000000000E-01   8.00000000000000E-01   0.00000000000000E+00  -8.02279789236627E-13   1.72969624302758E-08
      2.07481150142580E-17   1.72961601712346E-08   1.66334119900394E-13   0.00000000000000E+00   0.00000000000000E+00
      0.00000000000000E+00  -2.71418071043496E-13   2.75480109433180E-14   7.66194998637965E-09   7.66170611631955E-09
     -7.55934240743683E-14  -1.10000000000000E+01  -1.10000000000000E+01   0.00000000000000E+00   7.31080514486219E-08
     -3.95180830554796E-15  -9.80659137843678E-08  -2.49578662875542E-08  -9.07406958260250E-14
      3.44657307438522E-09
      8.00000000000000E-01   8.00000000000000E-01   0.00000000000000E+00  -7.28491510816155E-13   1.61283027080385E-08
      2.07481106282588E-17   1.61275742372758E-08   1.66329648162224E-13   0.00000000000000E+00   0.00000000000000E+00
      0.00000000000000E+00  -3.15580001040593E-13   2.50977879228099E-14   7.33749969538570E-09   7.33720921317258E-09
     -7.55930022090365E-14  -1.10000000000000E+01  -1.10000000000000E+01   0.00000000000000E+00   7.09050501556808E-08
     -3.95166294378095E-15  -9.43698296544663E-08  -2.34647834504485E-08  -9.07366459531878E-14
      3.53093382512482E-09
      8.00000000000000E-01   8.00000000000000E-01   0.00000000000000E+00  -6.41942577199351E-13   1.45589494563718E-08
      2.07481009120010E-17   1.45583075345427E-08   1.66323215266821E-13   0.00000000000000E+00   0.00000000000000E+00
      0.00000000000000E+00  -3.53670425874955E-13   2.17774764383703E-14   6.78588451192690E-09   6.78555261897746E-09
     -7.55924064574549E-14  -1.10000000000000E+01  -1.10000000000000E+01   0.00000000000000E+00   6.74681811517597E-08
     -3.95145350200043E-15  -8.88120373538263E-08  -2.13438601535201E-08  -9.07308088093660E-14
      3.65747495123421E-09
      8.00000000000000E-01   8.00000000000000E-01   0.00000000000000E+00  -5.31021699344184E-13   1.25516588401678E-08
      2.07480774433342E-17   1.25511278392165E-08   1.66314215885892E-13   0.00000000000000E+00   0.00000000000000E+00
      0.00000000000000E+00  -3.84936737579149E-13   1.75184010970638E-14   5.87289334472597E-09   5.87252592638949E-09
     -7.55916057720950E-14  -1.10000000000000E+01  -1.10000000000000E+01   0.00000000000000E+00   6.20962529778709E-08
     -3.95115947544875E-15  -8.05199027923174E-08  -1.84236537656060E-08  -9.07226101137970E-14
      3.84728664039829E-09
      8.00000000000000E-01   8.00000000000000E-01   0.00000000000000E+00  -4.05944279109715E-13   1.01502605908581E-08
      2.07480837040391E-17   1.01498546673271E-08   1.66302235609460E-13   0.00000000000000E+00   0.00000000000000E+00
      0.00000000000000E+00  -3.81004423478824E-13   1.25069332602147E-14   4.45753657166223E-09   4.45716807417201E-09
     -7.55906268595946E-14  -1.10000000000000E+01  -1.10000000000000E+01   0.00000000000000E+00   5.38160488951251E-08
     -3.95076524083455E-15  -6.84230676858589E-08  -1.46070227414991E-08  -9.07116087498664E-14
      4.13200417414442E-09
      8.00000000000000E-01   8.00000000000000E-01   0.00000000000000E+00  -2.78458723298756E-13   7.52667700135361E-09
      2.07480719506488E-17   7.52639856337838E-09   1.66287663920555E-13   0.00000000000000E+00   0.00000000000000E+00
      0.00000000000000E+00  -3.19418391316549E-13   7.36343848100166E-15   2.52171644214711E-09   2.52140438719427E-09
     -7.55896399403425E-14  -1.10000000000000E+01  -1.10000000000000E+01   0.00000000000000E+00   4.16849517331629E-08
     -3.95027898580820E-15  -5.17327507334566E-08  -1.00478029505727E-08  -9.06980239802116E-14
      4.55908047476361E-09
      8.00000000000000E-01   8.00000000000000E-01   0.00000000000000E+00  -1.63796296039401E-13   4.99703790432787E-09
      2.07480526599743E-17   4.99687412877988E-09   1.66272677057333E-13   0.00000000000000E+00   0.00000000000000E+00
      0.00000000000000E+00  -1.94737236118190E-13   3.11710709278034E-15   4.08545642402214E-10   4.08354022273189E-10
     -7.55890362222924E-14  -1.10000000000000E+01  -1.10000000000000E+01   0.00000000000000E+00   2.60147609613051E-08
     -3.94976500708171E-15  -3.14199851625932E-08  -5.40522815105308E-09  -9.06836408350409E-14
      5.19969492569240E-09
      8.00000000000000E-01   8.00000000000000E-01   0.00000000000000E+00  -7.72472148020400E-14   2.95071428432761E-09
      2.07480544065665E-17   2.95063705786086E-09   1.66261511242030E-13   0.00000000000000E+00   0.00000000000000E+00
      0.00000000000000E+00  -5.51314403651267E-14   6.49891841204422E-16  -1.08880444442120E-09  -1.08885892596973E-09
     -7.55893028150667E-14  -1.10000000000000E+01  -1.10000000000000E+01   0.00000000000000E+00   1.05033895086361E-08
     -3.94935742531985E-15  -1.23651636911698E-08  -1.86177813189113E-09  -9.06722084269635E-14
      5.68015576388899E-09
      8.00000000000000E-01   8.00000000000000E-01   0.00000000000000E+00  -4.64439926455059E-14   2.15364015959003E-09
      2.07480479159835E-17   2.15359373634543E-09   1.66258572044105E-13   0.00000000000000E+00   0.00000000000000E+00
      0.00000000000000E+00  -5.53429682258619E-15   1.03127179826025E-16  -1.35828532142839E-09  -1.35829075259804E-09
     -7.55899024012628E-14  -1.10000000000000E+01  -1.10000000000000E+01   0.00000000000000E+00   4.55648854371690E-09
     -3.94923162598869E-15  -5.35178757823267E-09  -7.95302983747394E-10  -9.06686696428423E-14
      6.40084702118388E-09
      8.00000000000000E-01   8.00000000000000E-01   0.00000000000000E+00  -2.37353526310946E-14   1.48174577601709E-09
      2.07480439649011E-17   1.48172206141250E-09   1.66257676494390E-13   0.00000000000000E+00   0.00000000000000E+00
      0.00000000000000E+00   1.76226334584046E-14  -1.43870296207303E-16  -1.25706292965553E-09  -1.25704545089237E-09
     -7.55908575781039E-14  -1.10000000000000E+01  -1.10000000000000E+01   0.00000000000000E+00   9.30887870243352E-10
     -3.94916598841830E-15  -1.15556053159750E-09  -2.24676610520136E-10  -9.06668189162857E-14
      6.94136546415505E-09
      8.00000000000000E-01   8.00000000000000E-01   0.00000000000000E+00  -1.58612747734141E-14   1.19356554547267E-09
      2.07480418718382E-17   1.19354970494594E-09   1.66258022309783E-13   0.00000000000000E+00   0.00000000000000E+00