DF-ISE text

Info {
  version   = 1.0
  type      = xyplot
  datasets  = [
    "time"
    "Ntop OuterVoltage" "Ntop InnerVoltage" "Ntop QuasiFermiPotential" "Ntop DisplacementCurrent" "Ntop eCurrent"
    "Ntop hCurrent" "Ntop TotalCurrent" "Ntop Charge" "Ptop OuterVoltage" "Ptop InnerVoltage"
    "Ptop QuasiFermiPotential" "Ptop DisplacementCurrent" "Ptop eCurrent" "Ptop hCurrent" "Ptop TotalCurrent"
    "Ptop Charge" "Pbot OuterVoltage" "Pbot InnerVoltage" "Pbot QuasiFermiPotential" "Pbot DisplacementCurrent"
    "Pbot eCurrent" "Pbot hCurrent" "Pbot TotalCurrent" "Pbot Charge" ]
  functions = [
    Time
    OuterVoltage InnerVoltage QuasiFermiPotential DisplacementCurrent eCurrent
    hCurrent TotalCurrent Charge OuterVoltage InnerVoltage
    QuasiFermiPotential DisplacementCurrent eCurrent hCurrent TotalCurrent
    Charge OuterVoltage InnerVoltage QuasiFermiPotential DisplacementCurrent
    eCurrent hCurrent TotalCurrent Charge ]
}

Data {
      5.00000000000000E-13
      8.00000000000000E-01   8.00000000000000E-01   0.00000000000000E+00   1.14494398530788E-15   2.32154392052737E-13
      2.07551224103696E-17   2.33320091160455E-13   1.71121898737569E-13   0.00000000000000E+00   0.00000000000000E+00
      0.00000000000000E+00  -1.01619212318299E-13  -1.96738351502987E-16   1.63231390181270E-07   1.63231288365319E-07
     -4.72084923833255E-14  -1.70000000000000E+01  -1.70000000000000E+01   0.00000000000000E+00  -4.75240272262973E-13
      2.19343903512721E-11  -1.63252980835489E-07  -1.63231521685410E-07  -1.23913406354242E-13
      1.25000000000000E-12
      8.00000000000000E-01   8.00000000000000E-01   0.00000000000000E+00   4.74230624278532E-14   8.24233664909646E-13
      2.07551621679903E-17   8.71677482499668E-13   1.71121898736302E-13   0.00000000000000E+00   0.00000000000000E+00
      0.00000000000000E+00   1.06871679031784E-13  -1.96738351488702E-16   1.63233733830978E-07   1.63233840505919E-07
     -4.72084923808785E-14  -1.70000000000000E+01  -1.70000000000000E+01   0.00000000000000E+00  -2.81991376628173E-12
      1.01207850142185E-10  -1.63333100119776E-07  -1.63234712183401E-07  -1.23913406355423E-13
      2.37500000000000E-12
      8.00000000000000E-01   8.00000000000000E-01   0.00000000000000E+00   3.27749775219772E-13   7.87309862165294E-12
      2.07551597569349E-17   8.20086915203247E-12   1.71121898717407E-13   0.00000000000000E+00   0.00000000000000E+00
      0.00000000000000E+00   2.21278552079127E-12  -1.96738351540263E-16   1.63262281319997E-07   1.63264493908779E-07
     -4.72084923443662E-14  -1.70000000000000E+01  -1.70000000000000E+01   0.00000000000000E+00  -3.07944333707439E-11
      8.37171084201128E-10  -1.64079071428761E-07  -1.63272694777930E-07  -1.23913406373041E-13
      4.06250000000000E-12
      8.00000000000000E-01   8.00000000000000E-01   0.00000000000000E+00   4.74040966042364E-12   1.59794315289002E-10
      2.07551444093553E-17   1.64534745704571E-10   1.71121898149558E-13   0.00000000000000E+00   0.00000000000000E+00
      0.00000000000000E+00   3.33480309629446E-11  -1.96738351021588E-16   1.63919770699758E-07   1.63953118533982E-07
     -4.72084912457501E-14  -1.70000000000000E+01  -1.70000000000000E+01   0.00000000000000E+00  -6.54336097611489E-10
      1.26933881042423E-08  -1.76156705286317E-07  -1.64117653279686E-07  -1.23913406903808E-13
      6.59375000000000E-12
      8.00000000000000E-01   8.00000000000000E-01   0.00000000000000E+00   9.09982931368629E-11   4.54030327518844E-09
      2.07551268907312E-17   4.63130158908043E-09   1.71121873559769E-13   0.00000000000000E+00   0.00000000000000E+00
      0.00000000000000E+00   6.79337535971088E-10  -1.96738327559372E-16   1.84134296548067E-07   1.84813633887299E-07
     -4.72084434675384E-14  -1.70000000000000E+01  -1.70000000000000E+01   0.00000000000000E+00  -1.93852266621600E-08
      2.53800991297641E-07  -4.23860700111860E-07  -1.89444935476379E-07  -1.23913430092231E-13
      1.03906250000000E-11
      8.00000000000000E-01   8.00000000000000E-01   0.00000000000000E+00   7.32788572922002E-10   5.92286545680728E-08
      2.07579729518589E-17   5.99614431617527E-08   1.71121349634885E-13   0.00000000000000E+00   0.00000000000000E+00
      0.00000000000000E+00   5.72340232541323E-09  -1.96737568988467E-16   4.54297948205585E-07   4.60021350334260E-07
     -4.72074187834322E-14  -1.70000000000000E+01  -1.70000000000000E+01   0.00000000000000E+00  -2.64250255735213E-07
      2.10882850045925E-06  -2.36456103822005E-06  -5.19982793496013E-07  -1.23913930851452E-13
      1.60859375000000E-11
      8.00000000000000E-01   8.00000000000000E-01   0.00000000000000E+00   3.74687894063393E-10   1.35187241816561E-07
      2.07546620229811E-17   1.35561929731379E-07   1.71118663875110E-13   0.00000000000000E+00   0.00000000000000E+00
      0.00000000000000E+00   3.08146231524204E-09  -1.96736166124058E-16   8.93841831159807E-07   8.96923293278313E-07
     -4.72021025170404E-14  -1.70000000000000E+01  -1.70000000000000E+01   0.00000000000000E+00  -6.43628729063791E-07
      1.11120765790242E-06  -1.50006415184832E-06  -1.03248522300969E-06  -1.23916561358070E-13
      2.46289062500000E-11
      8.00000000000000E-01   8.00000000000000E-01   0.00000000000000E+00   1.49154679855163E-11   1.66055093798437E-07
      2.07558501194189E-17   1.66070009287178E-07   1.71112548471069E-13   0.00000000000000E+00   0.00000000000000E+00
      0.00000000000000E+00   8.07943852744263E-13  -1.96736003518633E-16   1.08073991673649E-06   1.08074072448361E-06
     -4.71897264083166E-14  -1.70000000000000E+01  -1.70000000000000E+01   0.00000000000000E+00  -7.94841264123215E-07
      2.05905224922266E-09  -4.54028521896798E-07  -1.24681073377079E-06  -1.23922822062754E-13
      3.74433593750000E-11
      8.00000000000000E-01   8.00000000000000E-01   0.00000000000000E+00   2.23533804037884E-11   1.72414457133342E-07
      2.07555714127376E-17   1.72436810534502E-07   1.71103359855629E-13   0.00000000000000E+00   0.00000000000000E+00
      0.00000000000000E+00  -4.64845695888635E-11  -1.96733201027674E-16   1.07483484715011E-06   1.07478836238379E-06
     -4.71704478469531E-14  -1.70000000000000E+01  -1.70000000000000E+01   0.00000000000000E+00  -7.79381046403676E-07
     -5.01691671326502E-15  -4.67844121497695E-07  -1.24722517291829E-06  -1.23932912008675E-13
      5.66650390625000E-11
      8.00000000000000E-01   8.00000000000000E-01   0.00000000000000E+00   2.39180438124410E-11   1.84184256766180E-07
      2.07562831405108E-17   1.84208174830749E-07   1.71091120204337E-13   0.00000000000000E+00   0.00000000000000E+00
      0.00000000000000E+00  -6.10088355344228E-11  -1.96656367303817E-16   1.05469910757672E-06   1.05463809854453E-06
     -4.71434945635979E-14  -1.70000000000000E+01  -1.70000000000000E+01   0.00000000000000E+00  -7.51589389149896E-07
     -5.01759681922913E-15  -4.87256879207781E-07  -1.23884627337527E-06  -1.23947625640739E-13
      8.54975585937500E-11
      8.00000000000000E-01   8.00000000000000E-01   0.00000000000000E+00   3.26168959350580E-11   2.06026124635869E-07
      2.07549778236739E-17   2.06058741552559E-07   1.71075411735010E-13   0.00000000000000E+00   0.00000000000000E+00
      0.00000000000000E+00  -8.20902869842247E-11  -1.95030028013788E-16   1.01513205752706E-06   1.01504996704505E-06
     -4.71067011444649E-14  -1.70000000000000E+01  -1.70000000000000E+01   0.00000000000000E+00  -7.11197465776947E-07
     -5.01826386305545E-15  -5.09911237802394E-07  -1.22110870859760E-06  -1.23968710590545E-13
      1.28746337890625E-10
      8.00000000000000E-01   8.00000000000000E-01   0.00000000000000E+00   4.91032203670719E-11   2.54042898506651E-07
      2.07556998167462E-17   2.54092001747774E-07   1.71056575289630E-13   0.00000000000000E+00   0.00000000000000E+00
      0.00000000000000E+00  -1.08789407618200E-10  -1.68183516671100E-16   9.36415829852317E-07   9.36307040276515E-07
     -4.70583082964807E-14  -1.70000000000000E+01  -1.70000000000000E+01   0.00000000000000E+00  -6.56262750991459E-07
     -5.01915237370072E-15  -5.34136286013676E-07  -1.19039904202429E-06  -1.23998266993149E-13
      1.93619506835937E-10
      8.00000000000000E-01   8.00000000000000E-01   0.00000000000000E+00   6.44165247311715E-11   3.54786356330325E-07
      2.07558132962250E-17   3.54850772875812E-07   1.71037646668471E-13   0.00000000000000E+00   0.00000000000000E+00
      0.00000000000000E+00  -1.29926186211878E-10   1.53701025151787E-16   7.88784876137959E-07   7.88654950105448E-07
     -4.69990853152421E-14  -1.70000000000000E+01  -1.70000000000000E+01   0.00000000000000E+00  -5.87207380090542E-07
     -5.02034692307167E-15  -5.56298337870371E-07  -1.14350572298126E-06  -1.24038561353229E-13
      2.42274383544922E-10
      8.00000000000000E-01   8.00000000000000E-01   0.00000000000000E+00   6.67351298315265E-11   4.41324423326897E-07
      2.07565697244567E-17   4.41391158477485E-07   1.71030431577139E-13   0.00000000000000E+00   0.00000000000000E+00
      0.00000000000000E+00  -1.32526003908748E-10   9.61484337965274E-16   6.67859543062278E-07   6.67727018019853E-07
     -4.69643724213668E-14  -1.70000000000000E+01  -1.70000000000000E+01   0.00000000000000E+00  -5.43548325035829E-07
     -5.02116168180175E-15  -5.65569846440347E-07  -1.10911817649734E-06  -1.24066059155773E-13
      3.15256698608398E-10
      8.00000000000000E-01   8.00000000000000E-01   0.00000000000000E+00   5.95007380146760E-11   5.66427764926731E-07
      2.07568400504435E-17   5.66487265685503E-07   1.71029995391414E-13   0.00000000000000E+00   0.00000000000000E+00
      0.00000000000000E+00  -1.22588907104813E-10   4.05284550868252E-15   4.91301374034362E-07   4.91178789180103E-07
     -4.69264180483285E-14  -1.70000000000000E+01  -1.70000000000000E+01   0.00000000000000E+00  -4.85061006654834E-07
     -5.02227512230581E-15  -5.72605043188495E-07  -1.05766605486560E-06  -1.24103577343085E-13
      3.69993434906006E-10
      8.00000000000000E-01   8.00000000000000E-01   0.00000000000000E+00   4.88054673940613E-11   6.46490645444080E-07
      2.07572997704158E-17   6.46539450932231E-07   1.71036854004305E-13   0.00000000000000E+00   0.00000000000000E+00
      0.00000000000000E+00  -1.08355830764646E-10   8.43827809611646E-15   3.71798989895137E-07   3.71690642502650E-07
     -4.69078574137011E-14  -1.70000000000000E+01  -1.70000000000000E+01   0.00000000000000E+00  -4.43801547793747E-07
     -5.02303033107549E-15  -5.74428540618104E-07  -1.01823009343488E-06  -1.24128996590604E-13
      4.11045987129211E-10
      8.00000000000000E-01   8.00000000000000E-01   0.00000000000000E+00   3.96650454052564E-11   6.95463085520600E-07
      2.07574779468565E-17   6.95502750586763E-07   1.71045297248262E-13   0.00000000000000E+00   0.00000000000000E+00
      0.00000000000000E+00  -9.62260640004469E-11   1.31179902878827E-14   2.92469336671081E-07   2.92373123725071E-07
     -4.68987083330647E-14  -1.70000000000000E+01  -1.70000000000000E+01   0.00000000000000E+00  -4.13268372095729E-07
     -5.02355316711740E-15  -5.74607497192550E-07  -9.87875874311833E-07  -1.24146588915198E-13
      4.72624815464020E-10
      8.00000000000000E-01   8.00000000000000E-01   0.00000000000000E+00   2.63961509066214E-11   7.50233240408359E-07
      2.07576319863123E-17   7.50259636580023E-07   1.71061980864424E-13   0.00000000000000E+00   0.00000000000000E+00
      0.00000000000000E+00  -7.85600142966945E-11   2.24800297999726E-14   1.90893500209981E-07   1.90814962675714E-07
     -4.68913544945816E-14  -1.70000000000000E+01  -1.70000000000000E+01   0.00000000000000E+00  -3.67414751556490E-07
     -5.02426755470074E-15  -5.73659842674981E-07  -9.41074599255739E-07  -1.24170626369843E-13
      5.18808936715126E-10
      8.00000000000000E-01   8.00000000000000E-01   0.00000000000000E+00   1.76870851359052E-11   7.77670643346141E-07
      2.07578620048313E-17   7.77688330452035E-07   1.71076856466904E-13   0.00000000000000E+00   0.00000000000000E+00
      0.00000000000000E+00  -6.68622877139750E-11   3.13067487824982E-14   1.27514388509348E-07   1.27447557528383E-07
     -4.68900593729781E-14  -1.70000000000000E+01  -1.70000000000000E+01   0.00000000000000E+00  -3.32843557895441E-07
     -5.02474806796898E-15  -5.72292325060228E-07  -9.05135887980417E-07  -1.24186797093926E-13
      5.88085118591785E-10
      8.00000000000000E-01   8.00000000000000E-01   0.00000000000000E+00   7.36146603117340E-12   8.00955533874068E-07
      2.07577741795709E-17   8.00962895360857E-07   1.71101514888335E-13   0.00000000000000E+00   0.00000000000000E+00
      0.00000000000000E+00  -5.27017410982397E-11   4.72087623152902E-14   4.95325558311327E-08   4.94799012987967E-08
     -4.68934612623753E-14  -1.70000000000000E+01  -1.70000000000000E+01   0.00000000000000E+00  -2.80834248970530E-07
     -5.02537951454700E-15  -5.69608542663744E-07  -8.50442796659653E-07  -1.24208053625959E-13
      6.91999391406774E-10
      8.00000000000000E-01   8.00000000000000E-01   0.00000000000000E+00  -2.78052583652140E-12   8.07069626373110E-07
      2.07579879269252E-17   8.07066845868031E-07   1.71140978892986E-13   0.00000000000000E+00   0.00000000000000E+00
      0.00000000000000E+00  -3.77824107139375E-11   7.60903098592872E-14  -3.85852895671613E-08  -3.86229958875653E-08
     -4.69077615051219E-14  -1.70000000000000E+01  -1.70000000000000E+01   0.00000000000000E+00  -2.03659933010927E-07
     -5.02612665110594E-15  -5.64783911943412E-07  -7.68443849980466E-07  -1.24233217387863E-13
      7.69935096018016E-10
      8.00000000000000E-01   8.00000000000000E-01   0.00000000000000E+00  -7.61456759782607E-12   7.96283115000952E-07
      2.07580643274888E-17   7.96275500454112E-07   1.71170873128564E-13   0.00000000000000E+00   0.00000000000000E+00
      0.00000000000000E+00  -2.95387443546265E-11   1.00763000620261E-13  -8.77585120483313E-08  -8.77879500296853E-08
     -4.69239740204821E-14  -1.70000000000000E+01  -1.70000000000000E+01   0.00000000000000E+00  -1.47646544597931E-07
     -5.02653266299750E-15  -5.60841000799963E-07  -7.08487550424427E-07  -1.24246899108081E-13
      8.86838652934879E-10
      8.00000000000000E-01   8.00000000000000E-01   0.00000000000000E+00  -1.32294184264208E-11   7.63662042559359E-07
      2.07578809842640E-17   7.63648813161691E-07   1.71213902157928E-13   0.00000000000000E+00   0.00000000000000E+00
      0.00000000000000E+00  -1.80488132496951E-11   1.40276194223597E-13  -1.39644577234224E-07  -1.39662485771280E-07
     -4.69543654587653E-14  -1.70000000000000E+01  -1.70000000000000E+01   0.00000000000000E+00  -6.92670299882225E-08
     -5.02690756212067E-15  -5.54719292375280E-07  -6.23986327390410E-07  -1.24259536699163E-13
      9.74516320622526E-10
      8.00000000000000E-01   8.00000000000000E-01   0.00000000000000E+00  -1.71360259240020E-11   7.27929081240348E-07
      2.07579202228235E-17   7.27911945235182E-07   1.71243664160657E-13   0.00000000000000E+00   0.00000000000000E+00
      0.00000000000000E+00  -8.93947612963750E-12   1.70182957565740E-13  -1.61392664611684E-07  -1.61401433904856E-07
     -4.69803910976497E-14  -1.70000000000000E+01  -1.70000000000000E+01   0.00000000000000E+00  -1.64722938941523E-08
     -5.02701841859435E-15  -5.50038212409155E-07  -5.66510511330326E-07  -1.24263273063008E-13
      1.10603282215400E-09
      8.00000000000000E-01   8.00000000000000E-01   0.00000000000000E+00  -2.26525678917915E-11   6.57289971883743E-07
      2.07575513161573E-17   6.57267319336609E-07   1.71282262597652E-13   0.00000000000000E+00   0.00000000000000E+00
      0.00000000000000E+00   4.99618145661020E-12   2.11902163354108E-13  -1.65254324159194E-07  -1.65249116075574E-07
     -4.70213350692705E-14  -1.70000000000000E+01  -1.70000000000000E+01   0.00000000000000E+00   5.08580199677883E-08
     -5.02694908509174E-15  -5.42876218201872E-07  -4.92018203261033E-07  -1.24260927528383E-13
      1.20467019830260E-09
      8.00000000000000E-01   8.00000000000000E-01   0.00000000000000E+00  -2.58596859456302E-11   5.92511514759302E-07
      2.07571924312808E-17   5.92485655094113E-07   1.71305268342520E-13   0.00000000000000E+00   0.00000000000000E+00
      0.00000000000000E+00   1.41473960352139E-11   2.38660872841297E-13  -1.46688887761299E-07  -1.46674501704391E-07
     -4.70513973509675E-14  -1.70000000000000E+01  -1.70000000000000E+01   0.00000000000000E+00   9.15020012555797E-08
     -5.02674014789736E-15  -5.37313149618562E-07  -4.45811153389723E-07  -1.24253870991554E-13
      1.35262626252550E-09
      8.00000000000000E-01   8.00000000000000E-01   0.00000000000000E+00  -2.78576035504183E-11   4.84318019284091E-07
      2.07568947552705E-17   4.84290161701298E-07   1.71328419199666E-13   0.00000000000000E+00   0.00000000000000E+00
      0.00000000000000E+00   2.29184143792072E-11   2.68460558716724E-13  -9.35747560682515E-08  -9.35515691933136E-08
     -4.70916014469458E-14  -1.70000000000000E+01  -1.70000000000000E+01   0.00000000000000E+00   1.37594233843391E-07
     -5.02623515837792E-15  -5.28332821325141E-07  -3.90738592507985E-07  -1.24236817752720E-13
      1.46359331069268E-09
      8.00000000000000E-01   8.00000000000000E-01   0.00000000000000E+00  -2.68950971179659E-11   4.01753431982203E-07
      2.07566646189454E-17   4.01726536905842E-07   1.71336411111537E-13   0.00000000000000E+00   0.00000000000000E+00
      0.00000000000000E+00   2.49342050297684E-11   2.81726626050462E-13  -4.29864461541715E-08  -4.29612302225157E-08
     -4.71162527681539E-14  -1.70000000000000E+01  -1.70000000000000E+01   0.00000000000000E+00   1.62011618361973E-07
     -5.02574182193256E-15  -5.20776920019558E-07  -3.58765306683326E-07  -1.24220158343383E-13
      1.63004388294345E-09
      8.00000000000000E-01   8.00000000000000E-01   0.00000000000000E+00  -2.24995374699750E-11   2.89794017709957E-07
      2.07562049736266E-17   2.89771518193243E-07   1.71334366935429E-13   0.00000000000000E+00   0.00000000000000E+00
      0.00000000000000E+00   2.21055728640585E-11   2.87236039815337E-13   3.15300663521533E-08   3.15524591610572E-08
     -4.71432643359780E-14  -1.70000000000000E+01  -1.70000000000000E+01   0.00000000000000E+00   1.85972690670731E-07
     -5.02488146261685E-15  -5.07296663000150E-07  -3.21323977354301E-07  -1.24191102599451E-13
      1.75488181213153E-09
      8.00000000000000E-01   8.00000000000000E-01   0.00000000000000E+00  -1.80828944728481E-11   2.21025436162316E-07
      2.07559866239834E-17   2.21007353288599E-07   1.71323571949974E-13   0.00000000000000E+00   0.00000000000000E+00
      0.00000000000000E+00   1.74152587867765E-11   2.81361576574570E-13   7.79919151805702E-08   7.80096118009335E-08
     -4.71563382683169E-14  -1.70000000000000E+01  -1.70000000000000E+01   0.00000000000000E+00   1.95915066403472E-07
     -5.02417482067205E-15  -4.94932026468830E-07  -2.99016965089533E-07  -1.24167233681658E-13
      1.94213870591364E-09
      8.00000000000000E-01   8.00000000000000E-01   0.00000000000000E+00  -1.18373944903150E-11   1.45260683904441E-07
      2.07556856604076E-17   1.45248846530707E-07   1.71297429981319E-13   0.00000000000000E+00   0.00000000000000E+00
      0.00000000000000E+00   1.00671945592549E-11   2.60662441834850E-13   1.26042321669192E-07   1.26052649526193E-07
     -4.71674074155765E-14  -1.70000000000000E+01  -1.70000000000000E+01   0.00000000000000E+00   2.00549437866556E-07
     -5.02307360024117E-15  -4.71850928900382E-07  -2.71301496056900E-07  -1.24130022565742E-13
      2.08258137625022E-09
      8.00000000000000E-01   8.00000000000000E-01   0.00000000000000E+00  -8.22335640231540E-12   1.07168504087339E-07
      2.07555335024622E-17   1.07160280751692E-07   1.71273272779457E-13   0.00000000000000E+00   0.00000000000000E+00
      0.00000000000000E+00   5.74056920855913E-12   2.38841821642872E-13   1.46608103622764E-07   1.46614083033794E-07
     -4.71711984621682E-14  -1.70000000000000E+01  -1.70000000000000E+01   0.00000000000000E+00   1.96981589346447E-07
     -5.02224694585888E-15  -4.50755948109686E-07  -2.53774363785486E-07  -1.24102074317289E-13
      2.29324538175510E-09
      8.00000000000000E-01   8.00000000000000E-01   0.00000000000000E+00  -4.69413955870535E-12   7.06658336472926E-08
      2.07554218794863E-17   7.06611395284893E-08   1.71235400001083E-13   0.00000000000000E+00   0.00000000000000E+00
      0.00000000000000E+00   1.75518800424511E-12   2.01819410034685E-13   1.60768032617912E-07   1.60769989625326E-07
     -4.71733642997671E-14  -1.70000000000000E+01  -1.70000000000000E+01   0.00000000000000E+00   1.82287625523787E-07
     -5.02106354166445E-15  -4.13718749656539E-07  -2.31431129153815E-07  -1.24062035701316E-13
      2.45124338588376E-09
      8.00000000000000E-01   8.00000000000000E-01   0.00000000000000E+00  -3.18370934358033E-12   5.38475764439176E-08
      2.07553437394740E-17   5.38443927553293E-08   1.71208312861042E-13   0.00000000000000E+00   0.00000000000000E+00
      0.00000000000000E+00   3.22511215104964E-13   1.73647529957823E-13   1.63581281144282E-07   1.63581777303027E-07
     -4.71737766953518E-14  -1.70000000000000E+01  -1.70000000000000E+01   0.00000000000000E+00   1.65480056794157E-07
     -5.02025145630706E-15  -3.82906221832261E-07  -2.17426170058356E-07  -1.24034536165691E-13
      2.56974188898025E-09
      8.00000000000000E-01   8.00000000000000E-01   0.00000000000000E+00  -2.44658651575504E-12   4.47947176285947E-08
      2.07553503637339E-17   4.47922710628343E-08   1.71189734483600E-13   0.00000000000000E+00   0.00000000000000E+00
      0.00000000000000E+00  -2.16567254912334E-13   1.53528773320675E-13   1.63561699070204E-07   1.63561636031722E-07
     -4.71739372690268E-14  -1.70000000000000E+01  -1.70000000000000E+01   0.00000000000000E+00   1.50675699219355E-07
     -5.01969847267953E-15  -3.59029601294213E-07  -2.08353907094556E-07  -1.24015797214574E-13
      2.74748964362499E-09
      8.00000000000000E-01   8.00000000000000E-01   0.00000000000000E+00  -1.70807723799957E-12   3.48065988805324E-08
      2.07553096069660E-17   3.48048908240497E-08   1.71165428475990E-13   0.00000000000000E+00   0.00000000000000E+00
      0.00000000000000E+00  -5.41032624472155E-13   1.26069939762529E-13   1.62098382455584E-07   1.62097967492900E-07
     -4.71742928381241E-14  -1.70000000000000E+01  -1.70000000000000E+01   0.00000000000000E+00   1.26723994234694E-07
     -5.01897127166866E-15  -3.23626847532672E-07  -1.96902858316949E-07  -1.23991135637867E-13
      2.88080045960855E-09
      8.00000000000000E-01   8.00000000000000E-01   0.00000000000000E+00  -1.34091675727230E-12   2.92860105395634E-08
      2.07552349555624E-17   2.92846696435614E-08   1.71150198615046E-13   0.00000000000000E+00   0.00000000000000E+00
      0.00000000000000E+00  -5.63508527497813E-13   1.07981508982816E-13   1.60614746143321E-07   1.60614290616302E-07
     -4.71747399285245E-14  -1.70000000000000E+01  -1.70000000000000E+01   0.00000000000000E+00   1.08505511698200E-07
     -5.01850939838855E-15  -2.98404466939554E-07  -1.89898960259864E-07  -1.23975458686522E-13
      3.08076668358388E-09
      8.00000000000000E-01   8.00000000000000E-01   0.00000000000000E+00  -9.60142652915793E-13   2.30502227972110E-08
      2.07552627204359E-17   2.30492626753133E-08   1.71132089758047E-13   0.00000000000000E+00   0.00000000000000E+00
      0.00000000000000E+00  -4.49701656003646E-13   8.50779715321868E-14   1.58589203323070E-07   1.58588838699385E-07
     -4.71757277048821E-14  -1.70000000000000E+01  -1.70000000000000E+01   0.00000000000000E+00   8.27327879937373E-08
     -5.01794726973203E-15  -2.64370884350489E-07  -1.81638101374699E-07  -1.23956362053165E-13
      3.38071601954688E-09
      8.00000000000000E-01   8.00000000000000E-01   0.00000000000000E+00  -6.08278543747086E-13   1.66979183634213E-08
      2.07551540175638E-17   1.66973101056327E-08   1.71114210888162E-13   0.00000000000000E+00   0.00000000000000E+00
      0.00000000000000E+00  -1.96637365616424E-13   5.94849587204095E-14   1.56663631582617E-07   1.56663494430211E-07
     -4.71777382123306E-14  -1.70000000000000E+01  -1.70000000000000E+01   0.00000000000000E+00   5.06867283244459E-08
     -5.01736256025467E-15  -2.24047527842927E-07  -1.73360804535843E-07  -1.23936472675831E-13
      3.83064002349138E-09
      8.00000000000000E-01   8.00000000000000E-01   0.00000000000000E+00  -3.28234455715473E-13   1.10452637487011E-08
      2.07552251153931E-17   1.10449355350007E-08   1.71102153519760E-13   0.00000000000000E+00   0.00000000000000E+00
      0.00000000000000E+00   6.92573674944796E-14   3.63233154512774E-14   1.56118729341474E-07   1.56118834922157E-07
     -4.71812046615599E-14  -1.70000000000000E+01  -1.70000000000000E+01   0.00000000000000E+00   2.00131856061275E-08
     -5.01690704649304E-15  -1.87176951046378E-07  -1.67163770457157E-07  -1.23920948858200E-13
      4.50552602940813E-09
      8.00000000000000E-01   8.00000000000000E-01   0.00000000000000E+00  -1.49227992023473E-13   6.76476755762388E-09
      2.07552354020614E-17   6.76461835038709E-09   1.71099962054454E-13   0.00000000000000E+00   0.00000000000000E+00
      0.00000000000000E+00   1.68201110411186E-13   2.14266009239888E-14   1.57722678258846E-07   1.57722867886557E-07
     -4.71858917368085E-14  -1.70000000000000E+01  -1.70000000000000E+01   0.00000000000000E+00   2.31951679613016E-09
     -5.01670583049017E-15  -1.66806998016369E-07  -1.64487486236944E-07  -1.23914070317646E-13
      5.01169053384569E-09
      8.00000000000000E-01   8.00000000000000E-01   0.00000000000000E+00  -9.41050765268935E-14   5.09506348938458E-09
      2.07552156460413E-17   5.09496940506327E-09   1.71102189180261E-13   0.00000000000000E+00   0.00000000000000E+00
      0.00000000000000E+00   1.33217639407198E-13   1.75741961933989E-14   1.59158417693711E-07   1.59158568485547E-07
     -4.71885780203882E-14  -1.70000000000000E+01  -1.70000000000000E+01   0.00000000000000E+00  -1.89942056784476E-10
     -5.01669259954798E-15  -1.64063590817133E-07  -1.64253537890610E-07  -1.23913611159873E-13
      5.77093729050203E-09
      8.00000000000000E-01   8.00000000000000E-01   0.00000000000000E+00  -5.27750121024132E-14   3.58980042993829E-09
      2.07551882754614E-17   3.58974767568137E-09   1.71105321890773E-13   0.00000000000000E+00   0.00000000000000E+00
      0.00000000000000E+00   7.46781148239867E-14   1.51964642612550E-14   1.60624744748790E-07   1.60624834623370E-07
     -4.71914821033388E-14  -1.70000000000000E+01  -1.70000000000000E+01   0.00000000000000E+00  -3.11185311673192E-10
     -5.01669942388584E-15  -1.63903391970677E-07  -1.64214582299050E-07  -1.23913839787435E-13
      6.34037235799429E-09
      8.00000000000000E-01   8.00000000000000E-01   0.00000000000000E+00  -3.66492869007286E-14   2.89457891155014E-09
      2.07551375194380E-17   2.89454228301838E-09   1.71107001494801E-13   0.00000000000000E+00   0.00000000000000E+00
      0.00000000000000E+00   4.72327342642078E-14   1.42737216481386E-14   1.61268977707347E-07   1.61269039213803E-07
     -4.71930644809409E-14  -1.70000000000000E+01  -1.70000000000000E+01   0.00000000000000E+00  -4.51046363196111E-11
     -5.01670229016656E-15  -1.64118471843799E-07  -1.64163581496821E-07  -1.23913937013860E-13
      7.19452495923267E-09
      8.00000000000000E-01   8.00000000000000E-01   0.00000000000000E+00  -2.24666542241015E-14   2.20817738535756E-09
      2.07551541245562E-17   2.20815493945849E-09   1.71108808700645E-13   0.00000000000000E+00   0.00000000000000E+00
      0.00000000000000E+00   2.58290732158155E-14   1.31525822440688E-14   1.61843516164641E-07   1.61843555146296E-07
     -4.71948971044627E-14  -1.70000000000000E+01  -1.70000000000000E+01   0.00000000000000E+00   8.47241957826089E-11
     -5.01670152675172E-15  -1.64136429264835E-07  -1.64051710085754E-07  -1.23913911596183E-13
      8.47575386109025E-09
      8.00000000000000E-01   8.00000000000000E-01   0.00000000000000E+00  -1.21277565605370E-14   1.61007621190949E-09
      2.07551883322422E-17   1.61006410490812E-09   1.71110753650238E-13   0.00000000000000E+00   0.00000000000000E+00
      0.00000000000000E+00   1.31716899634850E-14   1.16772946965307E-14   1.62300555220434E-07   1.62300580069418E-07
     -4.71969380508277E-14  -1.70000000000000E+01  -1.70000000000000E+01   0.00000000000000E+00   6.14026012352927E-11
     -5.01669866146309E-15  -1.63972041758863E-07  -1.63910644174326E-07  -1.23913815599411E-13
      1.03975972138766E-08
      8.00000000000000E-01   8.00000000000000E-01   0.00000000000000E+00  -6.19013860569830E-15   1.13806397158526E-09
      2.07551475603112E-17   1.13805780220180E-09   1.71112868021607E-13   0.00000000000000E+00   0.00000000000000E+00
      0.00000000000000E+00   6.07914082738507E-15   9.79604120497481E-15   1.62637064713039E-07   1.62637080588221E-07
     -4.71991366090675E-14  -1.70000000000000E+01  -1.70000000000000E+01   0.00000000000000E+00   3.05838422335460E-11
     -5.01669611429005E-15  -1.63805717215960E-07  -1.63775138390423E-07  -1.23913731412539E-13
      1.32803622430562E-08
      8.00000000000000E-01   8.00000000000000E-01   0.00000000000000E+00  -3.33018401581958E-15   7.68786581844044E-10
      2.07550720292879E-17   7.68783272415100E-10   1.71115074596957E-13   0.00000000000000E+00   0.00000000000000E+00
      0.00000000000000E+00   2.92591332785947E-15   7.62885734299487E-15   1.62874767523411E-07   1.62874778078182E-07
     -4.72014179329446E-14  -1.70000000000000E+01  -1.70000000000000E+01   0.00000000000000E+00   2.13172750551512E-11
     -5.01669382141550E-15  -1.63664873608959E-07  -1.63643561350597E-07  -1.23913656664013E-13
      1.76045097868255E-08
      8.00000000000000E-01   8.00000000000000E-01   0.00000000000000E+00  -1.77339636800482E-15   4.69944599845805E-10
      2.07551761663463E-17   4.69942847204614E-10   1.71117212128843E-13   0.00000000000000E+00   0.00000000000000E+00