DF-ISE text

Info {
  version   = 1.0
  type      = xyplot
  datasets  = [
    "time"
    "Ntop OuterVoltage" "Ntop InnerVoltage" "Ntop QuasiFermiPotential" "Ntop DisplacementCurrent" "Ntop eCurrent"
    "Ntop hCurrent" "Ntop TotalCurrent" "Ntop Charge" "Ptop OuterVoltage" "Ptop InnerVoltage"
    "Ptop QuasiFermiPotential" "Ptop DisplacementCurrent" "Ptop eCurrent" "Ptop hCurrent" "Ptop TotalCurrent"
    "Ptop Charge" "Pbot OuterVoltage" "Pbot InnerVoltage" "Pbot QuasiFermiPotential" "Pbot DisplacementCurrent"
    "Pbot eCurrent" "Pbot hCurrent" "Pbot TotalCurrent" "Pbot Charge" ]
  functions = [
    Time
    OuterVoltage InnerVoltage QuasiFermiPotential DisplacementCurrent eCurrent
    hCurrent TotalCurrent Charge OuterVoltage InnerVoltage
    QuasiFermiPotential DisplacementCurrent eCurrent hCurrent TotalCurrent
    Charge OuterVoltage InnerVoltage QuasiFermiPotential DisplacementCurrent
    eCurrent hCurrent TotalCurrent Charge ]
}

Data {
      5.00000000000000E-13
      8.00000000000000E-01   8.00000000000000E-01   0.00000000000000E+00   3.54560180730254E-15   2.12162494749871E-13
      2.07480348345609E-17   2.15728844592008E-13   1.66264157121334E-13   0.00000000000000E+00   0.00000000000000E+00
      0.00000000000000E+00  -1.08357985407543E-13  -1.97164502211587E-16   7.90635179639681E-12   7.79779664648705E-12
     -7.55973310309698E-14  -1.10000000000000E+01  -1.10000000000000E+01   0.00000000000000E+00  -1.99184737991311E-13
      1.37024787232878E-11  -2.15168194763756E-11  -8.01352549107906E-12  -9.06668260903640E-14
      1.25000000000000E-12
      8.00000000000000E-01   8.00000000000000E-01   0.00000000000000E+00   2.73500951248676E-14   5.16950889300945E-13
      2.07480348709156E-17   5.44321732460683E-13   1.66264157120203E-13   0.00000000000000E+00   0.00000000000000E+00
      0.00000000000000E+00  -4.02790070382275E-14  -1.97164502210957E-16   8.91842676136184E-12   8.87795058982140E-12
     -7.55973310293361E-14  -1.10000000000000E+01  -1.10000000000000E+01   0.00000000000000E+00  -1.19833571482362E-12
      6.32277898843267E-11  -7.14517264917851E-11  -9.42227232228206E-12  -9.06668260908675E-14
      2.37500000000000E-12
      8.00000000000000E-01   8.00000000000000E-01   0.00000000000000E+00   1.78798308689166E-13   4.19486892255322E-12
      2.07480352369830E-17   4.37368797927762E-12   1.66264157103498E-13   0.00000000000000E+00   0.00000000000000E+00
      0.00000000000000E+00   9.58198426993599E-13  -1.97164502077571E-16   2.08666194980770E-11   2.18246207605685E-11
     -7.55973310051118E-14  -1.10000000000000E+01  -1.10000000000000E+01   0.00000000000000E+00  -1.31288066097605E-11
      5.23013552566089E-10  -5.36083054696174E-10  -2.61983087398459E-11  -9.06668260983864E-14
      4.06250000000000E-12
      8.00000000000000E-01   8.00000000000000E-01   0.00000000000000E+00   2.68174917408386E-12   8.57404209019675E-11
      2.07480377634715E-17   8.84221908240891E-11   1.66264156609150E-13   0.00000000000000E+00   0.00000000000000E+00
      0.00000000000000E+00   1.37806057630085E-11  -1.97164500387000E-16   2.96846046144514E-10   3.10626454743022E-10
     -7.55973302844157E-14  -1.10000000000000E+01  -1.10000000000000E+01   0.00000000000000E+00  -2.78806264744521E-10
      7.93006805330827E-09  -8.05031043413086E-09  -3.99048645567113E-10  -9.06668263247341E-14
      6.59375000000000E-12
      8.00000000000000E-01   8.00000000000000E-01   0.00000000000000E+00   5.33942277961124E-11   2.51541500085322E-09
      2.07480307366966E-17   2.56880924939736E-09   1.66264135502330E-13   0.00000000000000E+00   0.00000000000000E+00
      0.00000000000000E+00   2.78269999643650E-10  -1.97164495918725E-16   8.71690779177659E-09   8.99517759425575E-09
     -7.55972992983557E-14  -1.10000000000000E+01  -1.10000000000000E+01   0.00000000000000E+00  -8.25233048704215E-09
      1.58559662168641E-07  -1.61871318525252E-07  -1.15639868436531E-08  -9.06668362039735E-14
      1.03906250000000E-11
      8.00000000000000E-01   8.00000000000000E-01   0.00000000000000E+00   4.46394052350195E-10   3.41401838365123E-08
      2.07467002345584E-17   3.45865779096092E-08   1.66263691126596E-13   0.00000000000000E+00   0.00000000000000E+00
      0.00000000000000E+00   2.32516467962806E-09  -1.97164277455273E-16   1.20199357620518E-07   1.22524522102981E-07
     -7.55966418254732E-14  -1.10000000000000E+01  -1.10000000000000E+01   0.00000000000000E+00  -1.12397560961018E-07
      1.31746977989469E-06  -1.36218331894626E-06  -1.57111100012590E-07  -9.06670493011234E-14
      1.60859375000000E-11
      8.00000000000000E-01   8.00000000000000E-01   0.00000000000000E+00   2.59528424158698E-10   8.43748298977875E-08
      2.07474711856901E-17   8.46343583426937E-08   1.66261458915509E-13   0.00000000000000E+00   0.00000000000000E+00
      0.00000000000000E+00   1.21508303619817E-09  -1.97163629529036E-16   2.96613428995165E-07   2.97828511834200E-07
     -7.55932908084495E-14  -1.10000000000000E+01  -1.10000000000000E+01   0.00000000000000E+00  -2.73865939981706E-07
      6.94216010574845E-07  -8.02812940770033E-07  -3.82462870176894E-07  -9.06681681070594E-14
      2.46289062500000E-11
      8.00000000000000E-01   8.00000000000000E-01   0.00000000000000E+00   3.02531586588169E-11   1.10489991928402E-07
      2.07483254982922E-17   1.10520245107809E-07   1.66256509365157E-13   0.00000000000000E+00   0.00000000000000E+00
      0.00000000000000E+00  -2.35668913659490E-11  -1.97163030415837E-16   3.67279284891135E-07   3.67255717802606E-07
     -7.55856702266740E-14  -1.10000000000000E+01  -1.10000000000000E+01   0.00000000000000E+00  -3.39972476775757E-07
      1.28637227707825E-09  -1.39089858411735E-07  -4.77775962910414E-07  -9.06708391384832E-14
      3.74433593750000E-11
      8.00000000000000E-01   8.00000000000000E-01   0.00000000000000E+00   2.49133064615974E-11   1.19775962813310E-07
      2.07482539410964E-17   1.19800876140520E-07   1.66249411312739E-13   0.00000000000000E+00   0.00000000000000E+00
      0.00000000000000E+00  -3.16197387145675E-11  -1.97161632840995E-16   3.60603321247884E-07   3.60571701312008E-07
     -7.55742350892360E-14  -1.10000000000000E+01  -1.10000000000000E+01   0.00000000000000E+00  -3.36659063521007E-07
     -3.60869909841256E-15  -1.43713510322821E-07  -4.80372577452527E-07  -9.06751762235032E-14
      5.66650390625000E-11
      8.00000000000000E-01   8.00000000000000E-01   0.00000000000000E+00   2.24753549603256E-11   1.31909314585576E-07
      2.07479602717830E-17   1.31931789961284E-07   1.66240634438630E-13   0.00000000000000E+00   0.00000000000000E+00
      0.00000000000000E+00  -3.40640197727065E-11  -1.97114523803048E-16   3.48318600236387E-07   3.48284536019500E-07
     -7.55590596199260E-14  -1.10000000000000E+01  -1.10000000000000E+01   0.00000000000000E+00  -3.29064939337299E-07
     -3.75896857615410E-15  -1.51151382884515E-07  -4.80216325980782E-07  -9.06815748187050E-14
      8.54975585937500E-11
      8.00000000000000E-01   8.00000000000000E-01   0.00000000000000E+00   2.22244166733055E-11   1.49112823333755E-07
      2.07486486646135E-17   1.49135047771177E-07   1.66230472254247E-13   0.00000000000000E+00   0.00000000000000E+00
      0.00000000000000E+00  -3.82268360849950E-11  -1.96134749717389E-16   3.28281768323977E-07   3.28243541291757E-07
     -7.55395811019558E-14  -1.10000000000000E+01  -1.10000000000000E+01   0.00000000000000E+00  -3.17165959200045E-07
     -3.86223391392227E-15  -1.60212626000655E-07  -4.77378589062934E-07  -9.06908911522916E-14
      1.28746337890625E-10
      8.00000000000000E-01   8.00000000000000E-01   0.00000000000000E+00   2.46879832723029E-11   1.76437060760513E-07
      2.07483638145276E-17   1.76461748764534E-07   1.66219713682129E-13   0.00000000000000E+00   0.00000000000000E+00
      0.00000000000000E+00  -4.41725944698539E-11  -1.80337411090185E-16   2.94110457513103E-07   2.94066284738296E-07
     -7.55154797216046E-14  -1.10000000000000E+01  -1.10000000000000E+01   0.00000000000000E+00  -2.99995442261622E-07
     -3.92121433971323E-15  -1.70532587319992E-07  -4.70528033502828E-07  -9.07042339605246E-14
      1.93619506835937E-10
      8.00000000000000E-01   8.00000000000000E-01   0.00000000000000E+00   2.63417301313248E-11   2.21227065440282E-07
      2.07485114935189E-17   2.21253407191162E-07   1.66210272471008E-13   0.00000000000000E+00   0.00000000000000E+00
      0.00000000000000E+00  -4.70729029615901E-11   3.89325649122832E-18   2.37456980886480E-07   2.37409907987411E-07
     -7.54873125406241E-14  -1.10000000000000E+01  -1.10000000000000E+01   0.00000000000000E+00  -2.77686381771016E-07
     -3.94582884472520E-15  -1.80976929461728E-07  -4.58663315178573E-07  -9.07229599303841E-14
      2.42274383544922E-10
      8.00000000000000E-01   8.00000000000000E-01   0.00000000000000E+00   2.54305761843166E-11   2.55076052382690E-07
      2.07487672974463E-17   2.55101482979623E-07   1.66207229382198E-13   0.00000000000000E+00   0.00000000000000E+00
      0.00000000000000E+00  -4.59364072471412E-11   4.59016625415436E-16   1.94442433205528E-07   1.94396497257298E-07
     -7.54711069241204E-14  -1.10000000000000E+01  -1.10000000000000E+01   0.00000000000000E+00  -2.63515102294175E-07
     -3.95005677484008E-15  -1.85982873992687E-07  -4.49497980236919E-07  -9.07361224580789E-14
      3.15256698608398E-10
      8.00000000000000E-01   8.00000000000000E-01   0.00000000000000E+00   2.20615514035650E-11   3.01604879422386E-07
      2.07489441881302E-17   3.01626940994539E-07   1.66207821272966E-13   0.00000000000000E+00   0.00000000000000E+00
      0.00000000000000E+00  -4.20260376897349E-11   2.17698947568983E-15   1.33435404609492E-07   1.33393380748791E-07
     -7.54531652284905E-14  -1.10000000000000E+01  -1.10000000000000E+01   0.00000000000000E+00  -2.44518215347665E-07
     -3.95209882747852E-15  -1.90502102443566E-07  -4.35020321743330E-07  -9.07546560444759E-14
      3.69993434906006E-10
      8.00000000000000E-01   8.00000000000000E-01   0.00000000000000E+00   1.85114406899134E-11   3.31310470851553E-07
      2.07488999859088E-17   3.31328982312992E-07   1.66211623581828E-13   0.00000000000000E+00   0.00000000000000E+00
      0.00000000000000E+00  -3.78754240284323E-11   4.59984200332862E-15   9.19532037967987E-08   9.19153329726122E-08
     -7.54439532690113E-14  -1.10000000000000E+01  -1.10000000000000E+01   0.00000000000000E+00  -2.31020423765762E-07
     -3.95272194544465E-15  -1.92223887567120E-07  -4.23244315285604E-07  -9.07676703128177E-14
      4.52098539352417E-10
      8.00000000000000E-01   8.00000000000000E-01   0.00000000000000E+00   1.26282109403957E-11   3.65455395433599E-07
      2.07491664016528E-17   3.65468023665288E-07   1.66221322483559E-13   0.00000000000000E+00   0.00000000000000E+00
      0.00000000000000E+00  -3.08108729230014E-11   1.04762439954475E-14   3.85005137538164E-08   3.84697133571374E-08
     -7.54355127998642E-14  -1.10000000000000E+01  -1.10000000000000E+01   0.00000000000000E+00  -2.10811468107461E-07
     -3.95342174903688E-15  -1.93126264961542E-07  -4.03937737022425E-07  -9.07858096836944E-14
      5.13677367687225E-10
      8.00000000000000E-01   8.00000000000000E-01   0.00000000000000E+00   8.42681241369479E-12   3.82736640855932E-07
      2.07491374545697E-17   3.82745067689095E-07   1.66230914398687E-13   0.00000000000000E+00   0.00000000000000E+00
      0.00000000000000E+00  -2.56399967020362E-11   1.67394855088810E-14   5.58854252684680E-09   5.56291926963027E-09
     -7.54325969298447E-14  -1.10000000000000E+01  -1.10000000000000E+01   0.00000000000000E+00  -1.95400061349796E-07
     -3.95387663853674E-15  -1.92907921655053E-07  -3.88307986958726E-07  -9.07983174688420E-14
      5.59861488938332E-10
      8.00000000000000E-01   8.00000000000000E-01   0.00000000000000E+00   5.66705086404959E-12   3.91418598961814E-07
      2.07491883032056E-17   3.91424266033427E-07   1.66238999105018E-13   0.00000000000000E+00   0.00000000000000E+00
      0.00000000000000E+00  -2.21923942889819E-11   2.24670128795723E-14  -1.53313602067447E-08  -1.53535301340208E-08
     -7.54319281596633E-14  -1.10000000000000E+01  -1.10000000000000E+01   0.00000000000000E+00  -1.83655849148458E-07
     -3.95419347548793E-15  -1.92414882796754E-07  -3.76070735899405E-07  -9.08070709453553E-14
      6.29137670814991E-10
      8.00000000000000E-01   8.00000000000000E-01   0.00000000000000E+00   2.31102158360092E-12   3.98751660002440E-07
      2.07492206073447E-17   3.98753971044772E-07   1.66252049778721E-13   0.00000000000000E+00   0.00000000000000E+00
      0.00000000000000E+00  -1.79281280725929E-11   3.26008765804963E-14  -4.16110491908959E-08  -4.16289447180919E-08
     -7.54328735285586E-14  -1.10000000000000E+01  -1.10000000000000E+01   0.00000000000000E+00  -1.65804726785726E-07
     -3.95463112728420E-15  -1.91320295586323E-07  -3.57125026326680E-07  -9.08191762501629E-14
      7.33051943629980E-10
      8.00000000000000E-01   8.00000000000000E-01   0.00000000000000E+00  -1.08505781916046E-12   4.00301284973075E-07
      2.07492182871381E-17   4.00300199936005E-07   1.66272723833327E-13   0.00000000000000E+00   0.00000000000000E+00
      0.00000000000000E+00  -1.34293358845478E-11   5.07638619554187E-14  -7.23123519858060E-08  -7.23257305578286E-08
     -7.54377210364138E-14  -1.10000000000000E+01  -1.10000000000000E+01   0.00000000000000E+00  -1.38800624662343E-07
     -3.95520288626508E-15  -1.89173840760631E-07  -3.27974469378178E-07  -9.08350027969139E-14
      8.10987648241222E-10
      8.00000000000000E-01   8.00000000000000E-01   0.00000000000000E+00  -2.63798246767392E-12   3.96408713747484E-07
      2.07492395658611E-17   3.96406075785765E-07   1.66288509219796E-13   0.00000000000000E+00   0.00000000000000E+00
      0.00000000000000E+00  -1.11887519970454E-11   6.61465238252397E-14  -9.04229308003740E-08  -9.04340534058473E-08
     -7.54434752367595E-14  -1.10000000000000E+01  -1.10000000000000E+01   0.00000000000000E+00  -1.18642661262614E-07
     -3.95556505364480E-15  -1.87329357161739E-07  -3.05972022379918E-07  -9.08450339830354E-14
      9.27891205158085E-10
      8.00000000000000E-01   8.00000000000000E-01   0.00000000000000E+00  -4.11448069468117E-12   3.85819173102077E-07
      2.07491913755878E-17   3.85815058642131E-07   1.66311854335751E-13   0.00000000000000E+00   0.00000000000000E+00
      0.00000000000000E+00  -8.69443656389424E-12   9.04939532868183E-14  -1.12301161529834E-07  -1.12309765472445E-07
     -7.54546822722051E-14  -1.10000000000000E+01  -1.10000000000000E+01   0.00000000000000E+00  -8.91172835412418E-08
     -3.95600300081210E-15  -1.84388005672442E-07  -2.73505293169686E-07  -9.08571720635461E-14
      1.01556887284573E-09
      8.00000000000000E-01   8.00000000000000E-01   0.00000000000000E+00  -4.94058760415452E-12   3.75214146997758E-07
      2.07492225108574E-17   3.75209206430903E-07   1.66328778251220E-13   0.00000000000000E+00   0.00000000000000E+00
      0.00000000000000E+00  -6.98957040852750E-12   1.08597464688479E-13  -1.25213298073647E-07  -1.25220179046591E-07
     -7.54647275454587E-14  -1.10000000000000E+01  -1.10000000000000E+01   0.00000000000000E+00  -6.78732399760855E-08
     -3.95625100195350E-15  -1.82115783451975E-07  -2.49989027384312E-07  -9.08640507057613E-14
      1.14708537437720E-09
      8.00000000000000E-01   8.00000000000000E-01   0.00000000000000E+00  -6.19752152193168E-12   3.55624739744316E-07
      2.07491830078409E-17   3.55618542243543E-07   1.66352700643239E-13   0.00000000000000E+00   0.00000000000000E+00
      0.00000000000000E+00  -4.09496451917276E-12   1.33151793227189E-13  -1.38830037955782E-07  -1.38833999768508E-07
     -7.54816973339447E-14  -1.10000000000000E+01  -1.10000000000000E+01   0.00000000000000E+00  -3.81022900057872E-08
     -3.95650146659163E-15  -1.78682248512746E-07  -2.16784542475035E-07  -9.08710033092951E-14
      1.34436012667441E-09
      8.00000000000000E-01   8.00000000000000E-01   0.00000000000000E+00  -8.23346939993314E-12   3.17386576819149E-07
      2.07490166470371E-17   3.17378343370498E-07   1.66383978759870E-13   0.00000000000000E+00   0.00000000000000E+00
      0.00000000000000E+00   9.59191536880511E-13   1.59682363737543E-13  -1.44321343782547E-07  -1.44320224908646E-07
     -7.55093339447516E-14  -1.10000000000000E+01  -1.10000000000000E+01   0.00000000000000E+00   4.92961027513272E-10
     -3.95663234249565E-15  -1.73551075532732E-07  -1.73058118461851E-07  -9.08746448151190E-14
      1.49231619089731E-09
      8.00000000000000E-01   8.00000000000000E-01   0.00000000000000E+00  -9.51651681080079E-12   2.81974535113605E-07
      2.07489250335280E-17   2.81965018617543E-07   1.66402719985038E-13   0.00000000000000E+00   0.00000000000000E+00
      0.00000000000000E+00   4.57255733898053E-12   1.69591970452684E-13  -1.36215375093292E-07  -1.36210632943982E-07
     -7.55299160554914E-14  -1.10000000000000E+01  -1.10000000000000E+01   0.00000000000000E+00   2.39721279036520E-08
     -3.95656573979862E-15  -1.69726509620648E-07  -1.45754385673562E-07  -9.08728039295458E-14
      1.71425028723167E-09
      8.00000000000000E-01   8.00000000000000E-01   0.00000000000000E+00  -1.02019289963967E-11   2.22593730083855E-07
      2.07487641588175E-17   2.22583528175608E-07   1.66421468090086E-13   0.00000000000000E+00   0.00000000000000E+00
      0.00000000000000E+00   8.01701870418573E-12   1.68949204361015E-13  -1.08988530679828E-07  -1.08980344711919E-07
     -7.55570066041483E-14  -1.10000000000000E+01  -1.10000000000000E+01   0.00000000000000E+00   5.03451214698007E-08
     -3.95626483479292E-15  -1.63948300977224E-07  -1.13603183463688E-07  -9.08644614859376E-14
      1.79747557335705E-09
      8.00000000000000E-01   8.00000000000000E-01   0.00000000000000E+00  -1.00033931762641E-11   1.99909989840976E-07
      2.07486784028486E-17   1.99899986468548E-07   1.66425428328298E-13   0.00000000000000E+00   0.00000000000000E+00
      0.00000000000000E+00   8.52415011449832E-12   1.64632067808818E-13  -9.58951825628758E-08  -9.58864937806935E-08
     -7.55654682175870E-14  -1.10000000000000E+01  -1.10000000000000E+01   0.00000000000000E+00   5.77225529220438E-08
     -3.95610255371538E-15  -1.61736041653797E-07  -1.04013492687855E-07  -9.08599601107108E-14
      1.82868505565407E-09
      8.00000000000000E-01   8.00000000000000E-01   0.00000000000000E+00  -9.87069305972828E-12   1.91548831027808E-07
      2.07486830816317E-17   1.91538960355497E-07   1.66426479913614E-13   0.00000000000000E+00   0.00000000000000E+00
      0.00000000000000E+00   8.60682774361263E-12   1.62557392340300E-13  -9.08299636415996E-08  -9.08211942564636E-08
     -7.55683598128623E-14  -1.10000000000000E+01  -1.10000000000000E+01   0.00000000000000E+00   6.01771465982602E-08
     -3.95603622471772E-15  -1.60894908741258E-07  -1.00717766099034E-07  -9.08581201007513E-14
      1.85209216737684E-09
      8.00000000000000E-01   8.00000000000000E-01   0.00000000000000E+00  -9.75025662661951E-12   1.85358246570799E-07
      2.07486460881491E-17   1.85348496334921E-07   1.66427116525513E-13   0.00000000000000E+00   0.00000000000000E+00
      0.00000000000000E+00   8.62233325991406E-12   1.60858018777962E-13  -8.70121413139673E-08  -8.70033581226886E-08
     -7.55704254110427E-14  -1.10000000000000E+01  -1.10000000000000E+01   0.00000000000000E+00   6.19138469317756E-08
     -3.95598471410349E-15  -1.60258981188023E-07  -9.83451382122326E-08  -9.08566911144709E-14
      1.86964750116891E-09
      8.00000000000000E-01   8.00000000000000E-01   0.00000000000000E+00  -9.64943462457182E-12   1.80767540542152E-07
      2.07485861178921E-17   1.80757891128276E-07   1.66427509655017E-13   0.00000000000000E+00   0.00000000000000E+00
      0.00000000000000E+00   8.61408903261347E-12   1.59508279439645E-13  -8.41475461052569E-08  -8.41387725079449E-08
     -7.55719164310524E-14  -1.10000000000000E+01  -1.10000000000000E+01   0.00000000000000E+00   6.31597846709605E-08
     -3.95594513936976E-15  -1.59778899335346E-07  -9.66191186203306E-08  -9.08555932239654E-14
      1.89598050185702E-09
      8.00000000000000E-01   8.00000000000000E-01   0.00000000000000E+00  -9.48264236784648E-12   1.73975640354163E-07
      2.07485868324768E-17   1.73966157732544E-07   1.66427966019855E-13   0.00000000000000E+00   0.00000000000000E+00
      0.00000000000000E+00   8.57649802429449E-12   1.57371231460370E-13  -7.98625319317472E-08  -7.98537980624915E-08
     -7.55740595507814E-14  -1.10000000000000E+01  -1.10000000000000E+01   0.00000000000000E+00   6.49409270363226E-08
     -3.95588433965515E-15  -1.59053282750490E-07  -9.41123596700520E-08  -9.08539064690741E-14
      1.93548000288918E-09
      8.00000000000000E-01   8.00000000000000E-01   0.00000000000000E+00  -9.20128970329632E-12   1.64024545181439E-07
      2.07486128043028E-17   1.64015343912484E-07   1.66428357271740E-13   0.00000000000000E+00   0.00000000000000E+00
      0.00000000000000E+00   8.46166459135904E-12   1.53934911084293E-13  -7.34962244983500E-08  -7.34876088988475E-08
     -7.55770653412824E-14  -1.10000000000000E+01  -1.10000000000000E+01   0.00000000000000E+00   6.74235084235583E-08
     -3.95579010038200E-15  -1.57951239481405E-07  -9.05277350136365E-08  -9.08512919304587E-14
      1.99472925443743E-09
      8.00000000000000E-01   8.00000000000000E-01   0.00000000000000E+00  -8.72030997153186E-12   1.49702846564748E-07
      2.07485105527078E-17   1.49694126275525E-07   1.66428309820975E-13   0.00000000000000E+00   0.00000000000000E+00
      0.00000000000000E+00   8.15662086054446E-12   1.48334131135292E-13  -6.41881699166249E-08  -6.41798649616332E-08
     -7.55811123610455E-14  -1.10000000000000E+01  -1.10000000000000E+01   0.00000000000000E+00   7.07488851247338E-08
     -3.95564252372595E-15  -1.56263142482983E-07  -8.55142613138914E-08  -9.08471974599302E-14
      2.08360313175980E-09
      8.00000000000000E-01   8.00000000000000E-01   0.00000000000000E+00  -7.90630572213755E-12   1.29765508470048E-07
      2.07484437497074E-17   1.29757602185075E-07   1.66426909938169E-13   0.00000000000000E+00   0.00000000000000E+00
      0.00000000000000E+00   7.48502488278253E-12   1.39160919042512E-13  -5.10530468114192E-08  -5.10454226256174E-08
     -7.55861892523158E-14  -1.10000000000000E+01  -1.10000000000000E+01   0.00000000000000E+00   7.49246311134489E-08
     -3.95540909469394E-15  -1.53636806717497E-07  -7.87121795594572E-08  -9.08407206858529E-14
      2.21691394774336E-09
      8.00000000000000E-01   8.00000000000000E-01   0.00000000000000E+00  -6.59893765665402E-12   1.03674107859013E-07
      2.07484170339275E-17   1.03667508942105E-07   1.66422193278779E-13   0.00000000000000E+00   0.00000000000000E+00
      0.00000000000000E+00   6.19338612633123E-12   1.24363058577183E-13  -3.38452243994132E-08  -3.38389066502283E-08
     -7.55917827015763E-14  -1.10000000000000E+01  -1.10000000000000E+01   0.00000000000000E+00   7.96038711639609E-08
     -3.95503754282721E-15  -1.49432469500800E-07  -6.98286022918769E-08  -9.08304105772028E-14
      2.41688017171869E-09
      8.00000000000000E-01   8.00000000000000E-01   0.00000000000000E+00  -4.74554418293192E-12   7.31216017703471E-08
      2.07483003910720E-17   7.31168562469125E-08   1.66410554659749E-13   0.00000000000000E+00   0.00000000000000E+00
      0.00000000000000E+00   4.14121238276181E-12   1.01718953517758E-13  -1.44320815244804E-08  -1.44278385931441E-08
     -7.55964961666221E-14  -1.10000000000000E+01  -1.10000000000000E+01   0.00000000000000E+00   8.36722745892423E-08
     -3.95444837015645E-15  -1.42361288288562E-07  -5.86890176537684E-08  -9.08140584931260E-14
      2.56685483970019E-09
      8.00000000000000E-01   8.00000000000000E-01   0.00000000000000E+00  -3.58796913315372E-12   5.62842717469457E-08
      2.07482441263016E-17   5.62806837985608E-08   1.66399303209216E-13   0.00000000000000E+00   0.00000000000000E+00
      0.00000000000000E+00   2.79455853148870E-12   8.55490075517720E-14  -4.70464248145030E-09  -4.70176237391126E-09
     -7.55978846932518E-14  -1.10000000000000E+01  -1.10000000000000E+01   0.00000000000000E+00   8.47588733472792E-08
     -3.95399308411686E-15  -1.36337790817936E-07  -5.15789214246494E-08  -9.08014185159653E-14
      2.79181684167244E-09
      8.00000000000000E-01   8.00000000000000E-01   0.00000000000000E+00  -2.30301971952530E-12   3.85090296450566E-08
      2.07482016122558E-17   3.85067266460852E-08   1.66380348978498E-13   0.00000000000000E+00   0.00000000000000E+00
      0.00000000000000E+00   1.29771106092557E-12   6.40658439612192E-14   3.78512395043656E-09   3.78648572734145E-09
     -7.55979093355138E-14  -1.10000000000000E+01  -1.10000000000000E+01   0.00000000000000E+00   8.37137903556006E-08
     -3.95330980360520E-15  -1.26006998775718E-07  -4.22932123734267E-08  -9.07824396429848E-14
      2.96053834315162E-09
      8.00000000000000E-01   8.00000000000000E-01   0.00000000000000E+00  -1.65195243406607E-12   2.95288028903924E-08
      2.07481432957741E-17   2.95271509587064E-08   1.66365532584903E-13   0.00000000000000E+00   0.00000000000000E+00
      0.00000000000000E+00   5.73724175333071E-13   5.05389426583827E-14   6.66926862418167E-09   6.66989288729966E-09
     -7.55970036596891E-14  -1.10000000000000E+01  -1.10000000000000E+01   0.00000000000000E+00   8.10558392339047E-08
     -3.95280930764759E-15  -1.17252879127101E-07  -3.61970438460061E-08  -9.07685289252141E-14
      3.21362059537041E-09
      8.00000000000000E-01   8.00000000000000E-01   0.00000000000000E+00  -1.02563374809122E-12   2.04558554472986E-08
      2.07481242661851E-17   2.04548298342987E-08   1.66343949132002E-13   0.00000000000000E+00   0.00000000000000E+00
      0.00000000000000E+00  -4.63885272288327E-14   3.44447966200799E-14   7.76292050710424E-09   7.76290856337363E-09
     -7.55951423908489E-14  -1.10000000000000E+01  -1.10000000000000E+01   0.00000000000000E+00   7.45733157826758E-08
     -3.95210030964168E-15  -1.02791050228248E-07  -2.82177383976723E-08  -9.07488067411528E-14
      3.40343228453449E-09
      8.00000000000000E-01   8.00000000000000E-01   0.00000000000000E+00  -7.40347657041150E-13   1.59416147823893E-08
      2.07481046860730E-17   1.59408744554803E-08   1.66328973183254E-13   0.00000000000000E+00   0.00000000000000E+00
      0.00000000000000E+00  -2.60027226029081E-13   2.53637430451722E-14   7.14225306519542E-09   7.14201840171243E-09
     -7.55937212168302E-14  -1.10000000000000E+01  -1.10000000000000E+01   0.00000000000000E+00   6.81601595196404E-08
     -3.95161350704938E-15  -9.12430484252197E-08  -2.30828928571927E-08  -9.07352519664239E-14
      3.68814981828062E-09
      8.00000000000000E-01   8.00000000000000E-01   0.00000000000000E+00  -4.74877693892123E-13   1.13010010597049E-08
      2.07480735346334E-17   1.13005262027591E-08   1.66309347611694E-13   0.00000000000000E+00   0.00000000000000E+00
      0.00000000000000E+00  -3.66282076008828E-13   1.55916881720800E-14   5.35634852620028E-09   5.35599783581244E-09
     -7.55919371636154E-14  -1.10000000000000E+01  -1.10000000000000E+01   0.00000000000000E+00   5.70717462986922E-08
     -3.95097346810580E-15  -7.37282663862903E-08  -1.66565240385715E-08  -9.07174104480786E-14
      3.90168796859022E-09
      8.00000000000000E-01   8.00000000000000E-01   0.00000000000000E+00  -3.52135051275346E-13   8.91841809701238E-09
      2.07480822085792E-17   8.91806598270919E-09   1.66297114930827E-13   0.00000000000000E+00   0.00000000000000E+00
      0.00000000000000E+00  -3.53040437164067E-13   1.06351933425652E-14   3.86320484705692E-09   3.86286244181309E-09
     -7.55909550151454E-14  -1.10000000000000E+01  -1.10000000000000E+01   0.00000000000000E+00   4.83031069772880E-08
     -3.95057038054020E-15  -6.10840314512399E-08  -1.27809284245223E-08  -9.07061599156802E-14
      4.22199519405461E-09
      8.00000000000000E-01   8.00000000000000E-01   0.00000000000000E+00  -2.31728269674693E-13   6.40381694727185E-09
      2.07480657077395E-17   6.40358523975024E-09   1.66282759172767E-13   0.00000000000000E+00   0.00000000000000E+00
      0.00000000000000E+00  -2.76768858695509E-13   5.80265380373681E-15   1.90907169735351E-09   1.90880073114862E-09
     -7.55900397633040E-14  -1.10000000000000E+01  -1.10000000000000E+01   0.00000000000000E+00   3.57345334480309E-08
     -3.95008945542511E-15  -4.40469154688403E-08  -8.31238597089887E-09  -9.06927194094634E-14
      4.70245603225120E-09
      8.00000000000000E-01   8.00000000000000E-01   0.00000000000000E+00  -1.28492942020337E-13   4.09165036991102E-09
      2.07480560708743E-17   4.09152189771706E-09   1.66268972422543E-13   0.00000000000000E+00   0.00000000000000E+00
      0.00000000000000E+00  -1.47680027187269E-13   2.13041437800555E-15  -4.60940387848707E-11  -4.62395883976800E-11
     -7.55896201019306E-14  -1.10000000000000E+01  -1.10000000000000E+01   0.00000000000000E+00   2.03478058846406E-08
     -3.94961204807938E-15  -2.43930842443479E-08  -4.04528230931938E-09  -9.06793523206120E-14
      5.42314728954609E-09
      8.00000000000000E-01   8.00000000000000E-01   0.00000000000000E+00  -5.59248095295605E-14   2.33906130443317E-09
      2.07480487381084E-17   2.33900540037169E-09   1.66260037670935E-13   0.00000000000000E+00   0.00000000000000E+00
      0.00000000000000E+00  -2.52943216419613E-14   2.70975074595794E-16  -1.18732505360693E-09  -1.18735007695350E-09
     -7.55901176715697E-14  -1.10000000000000E+01  -1.10000000000000E+01   0.00000000000000E+00   6.72826775908034E-09
     -3.94927604475282E-15  -7.87991913322249E-09  -1.15165532341819E-09  -9.06699199993653E-14
      5.96366573251725E-09
      8.00000000000000E-01   8.00000000000000E-01   0.00000000000000E+00  -3.58517225982433E-14   1.69960668108662E-09
      2.07480451853421E-17   1.69957085011207E-09   1.66258329532961E-13   0.00000000000000E+00   0.00000000000000E+00