DF-ISE text

Info {
  version   = 1.0
  type      = xyplot
  datasets  = [
    "time"
    "Ntop OuterVoltage" "Ntop InnerVoltage" "Ntop QuasiFermiPotential" "Ntop DisplacementCurrent" "Ntop eCurrent"
    "Ntop hCurrent" "Ntop TotalCurrent" "Ntop Charge" "Ptop OuterVoltage" "Ptop InnerVoltage"
    "Ptop QuasiFermiPotential" "Ptop DisplacementCurrent" "Ptop eCurrent" "Ptop hCurrent" "Ptop TotalCurrent"
    "Ptop Charge" "Pbot OuterVoltage" "Pbot InnerVoltage" "Pbot QuasiFermiPotential" "Pbot DisplacementCurrent"
    "Pbot eCurrent" "Pbot hCurrent" "Pbot TotalCurrent" "Pbot Charge" ]
  functions = [
    Time
    OuterVoltage InnerVoltage QuasiFermiPotential DisplacementCurrent eCurrent
    hCurrent TotalCurrent Charge OuterVoltage InnerVoltage
    QuasiFermiPotential DisplacementCurrent eCurrent hCurrent TotalCurrent
    Charge OuterVoltage InnerVoltage QuasiFermiPotential DisplacementCurrent
    eCurrent hCurrent TotalCurrent Charge ]
}

Data {
      5.00000000000000E-13
      8.00000000000000E-01   8.00000000000000E-01   0.00000000000000E+00   1.23567674567293E-14   1.17092526288656E-11
     -1.09965334865081E-11   7.25075909814250E-13   2.32745367027491E-13   0.00000000000000E+00   0.00000000000000E+00
      0.00000000000000E+00  -1.12893917693714E-13  -1.97181352814837E-16   2.01116381821991E-11   1.99985470831526E-11
     -7.40436337748281E-14  -4.00000000000000E+01  -4.00000000000000E+01   0.00000000000000E+00  -5.94677132294848E-13
      2.19334649325308E-11  -4.20624107932028E-11  -2.07236229929668E-11  -1.58701733252663E-13
      1.25000000000000E-12
      8.00000000000000E-01   8.00000000000000E-01   0.00000000000000E+00   1.42415124436693E-13   5.33022800513604E-11
     -5.07413450990586E-11   2.70335007673843E-12   2.32745367027981E-13   0.00000000000000E+00   0.00000000000000E+00
      0.00000000000000E+00   3.28761849029583E-14  -1.97181352811350E-16   2.18447693734247E-11   2.18774483769748E-11
     -7.40436337738843E-14  -4.00000000000000E+01  -4.00000000000000E+01   0.00000000000000E+00  -3.42318186533534E-12
      1.01206924723455E-10  -1.22364541311833E-10  -2.45807984537132E-11  -1.58701733254098E-13
      2.37500000000000E-12
      8.00000000000000E-01   8.00000000000000E-01   0.00000000000000E+00   1.09096803583437E-12   4.44765362777594E-10
     -4.19838883556266E-10   2.60174472571624E-11   2.32745367035113E-13   0.00000000000000E+00   0.00000000000000E+00
      0.00000000000000E+00   1.62863452364029E-12  -1.97181352769229E-16   4.27717277002306E-11   4.44001650425182E-11
     -7.40436337597192E-14  -4.00000000000000E+01  -4.00000000000000E+01   0.00000000000000E+00  -3.70867691908265E-11
      8.37170158782493E-10  -8.70501001891347E-10  -7.04176122996806E-11  -1.58701733275395E-13
      4.06250000000000E-12
      8.00000000000000E-01   8.00000000000000E-01   0.00000000000000E+00   1.63627940170774E-11   6.88909077391136E-09
     -6.36905303195875E-09   5.36400535969687E-10   2.32745367243477E-13   0.00000000000000E+00   0.00000000000000E+00
      0.00000000000000E+00   2.40942020416733E-11  -1.97181351797915E-16   5.24816112341232E-10   5.48910117201553E-10
     -7.40436333306903E-14  -4.00000000000000E+01  -4.00000000000000E+01   0.00000000000000E+00  -7.82594143870339E-10
      1.26933871788250E-08  -1.29961036881259E-08  -1.08531065317125E-09  -1.58701733912786E-13
      6.59375000000000E-12
      8.00000000000000E-01   8.00000000000000E-01   0.00000000000000E+00   3.24574036919841E-10   1.42718194961689E-07
     -1.27460052439721E-07   1.55827165588874E-08   2.32745376051310E-13   0.00000000000000E+00   0.00000000000000E+00
      0.00000000000000E+00   4.87418640868983E-10  -1.97181322060256E-16   1.52637813500062E-08   1.57511997936939E-08
     -7.40436145148117E-14  -4.00000000000000E+01  -4.00000000000000E+01   0.00000000000000E+00  -2.30023785111121E-08
      2.53800990372246E-07  -2.62132528213715E-07  -3.13339163525811E-08  -1.58701761536498E-13
      1.03906250000000E-11
      8.00000000000000E-01   8.00000000000000E-01   0.00000000000000E+00   2.70636106236651E-09   1.26795354960735E-06
     -1.06087961341875E-06   2.09780297250970E-07   2.32745561559256E-13   0.00000000000000E+00   0.00000000000000E+00
      0.00000000000000E+00   4.04719908349315E-09  -1.97180929060791E-16   2.09723227664858E-07   2.13770426551170E-07
     -7.40432089875091E-14  -4.00000000000000E+01  -4.00000000000000E+01   0.00000000000000E+00  -3.10868138690584E-07
      2.10882849953395E-06  -2.22151108464551E-06  -4.23550723802140E-07  -1.58702352571746E-13
      1.60859375000000E-11
      8.00000000000000E-01   8.00000000000000E-01   0.00000000000000E+00   1.57926085222504E-09   1.07966453000242E-06
     -5.67699712238599E-07   5.13544078616043E-07   2.32746528064203E-13   0.00000000000000E+00   0.00000000000000E+00
      0.00000000000000E+00   1.93354318061089E-09  -1.97180326739862E-16   5.05905557260906E-07   5.07839100244337E-07
     -7.40411132025396E-14  -4.00000000000000E+01  -4.00000000000000E+01   0.00000000000000E+00  -7.45927362749020E-07
      1.11120765697673E-06  -1.38666347308810E-06  -1.02138317886038E-06  -1.58705414861663E-13
      2.46289062500000E-11
      8.00000000000000E-01   8.00000000000000E-01   0.00000000000000E+00   2.27195739506767E-10   6.87281284145045E-07
     -1.41822473208208E-08   6.73326232563731E-07   2.32748945962066E-13   0.00000000000000E+00   0.00000000000000E+00
      0.00000000000000E+00  -2.78700677753662E-10  -1.97180142441351E-16   5.93157816708387E-07   5.92879115833453E-07
     -7.40363178144485E-14  -4.00000000000000E+01  -4.00000000000000E+01   0.00000000000000E+00  -9.11989278327892E-07
      2.05905132345909E-09  -3.56275121392750E-07  -1.26620534839718E-06  -1.58712628147617E-13
      3.74433593750000E-11
      8.00000000000000E-01   8.00000000000000E-01   0.00000000000000E+00   1.72189969850313E-10   7.45468088026875E-07
     -1.19601086376577E-08   7.33680169359068E-07   2.32753288754734E-13   0.00000000000000E+00   0.00000000000000E+00
      0.00000000000000E+00  -2.19160818621538E-10  -1.97180251472893E-16   5.33882036823406E-07   5.33662875807604E-07
     -7.40291086462197E-14  -4.00000000000000E+01  -4.00000000000000E+01   0.00000000000000E+00  -8.90873469689346E-07
     -5.94249467568956E-15  -3.76469569534825E-07  -1.26734304516667E-06  -1.58724180108515E-13
      5.66650390625000E-11
      8.00000000000000E-01   8.00000000000000E-01   0.00000000000000E+00   1.22257018899426E-10   8.09522030888706E-07
     -1.03613223848181E-08   7.99282965522788E-07   2.32760543998576E-13   0.00000000000000E+00   0.00000000000000E+00
      0.00000000000000E+00  -1.62933287101702E-10  -1.97180377759807E-16   4.64559925653628E-07   4.64396992169346E-07
     -7.40195374933624E-14  -4.00000000000000E+01  -4.00000000000000E+01   0.00000000000000E+00  -8.60193027785287E-07
     -5.94305070469124E-15  -4.03486923963796E-07  -1.26367995769213E-06  -1.58741006505215E-13
      8.54975585937500E-11
      8.00000000000000E-01   8.00000000000000E-01   0.00000000000000E+00   7.64723362788471E-11   8.72443902295818E-07
     -8.35162306844840E-09   8.64168751563648E-07   2.32772481097327E-13   0.00000000000000E+00   0.00000000000000E+00
      0.00000000000000E+00  -1.10373226645489E-10  -1.97180510740387E-16   3.90499070932707E-07   3.90388697508881E-07
     -7.40072569899113E-14  -4.00000000000000E+01  -4.00000000000000E+01   0.00000000000000E+00  -8.20269560480269E-07
     -5.94363400090449E-15  -4.34287882648630E-07  -1.25455744907253E-06  -1.58765224107415E-13
      1.28746337890625E-10
      8.00000000000000E-01   8.00000000000000E-01   0.00000000000000E+00   3.82001583747527E-11   9.24363216929939E-07
     -6.03999530103470E-09   9.18361421787279E-07   2.32791622159515E-13   0.00000000000000E+00   0.00000000000000E+00
      0.00000000000000E+00  -6.59247757451859E-11  -1.97180636846357E-16   3.19112369040931E-07   3.19046444068005E-07
     -7.39919936314196E-14  -4.00000000000000E+01  -4.00000000000000E+01   0.00000000000000E+00  -7.71732233473585E-07
     -5.94446487408199E-15  -4.65675626437234E-07  -1.23740786585528E-06  -1.58799628528096E-13
      1.93619506835937E-10
      8.00000000000000E-01   8.00000000000000E-01   0.00000000000000E+00   1.09426261455081E-11   9.53874372529533E-07
     -3.71114435442951E-09   9.50174170801249E-07   2.32821241618076E-13   0.00000000000000E+00   0.00000000000000E+00
      0.00000000000000E+00  -3.47707939153419E-11  -1.97180742317809E-16   2.58463984153479E-07   2.58429213162383E-07
     -7.39733810073909E-14  -4.00000000000000E+01  -4.00000000000000E+01   0.00000000000000E+00  -7.16613428479084E-07
     -5.94563254242335E-15  -4.91989949538913E-07  -1.20860338396363E-06  -1.58847860610686E-13
      2.42274383544922E-10
      8.00000000000000E-01   8.00000000000000E-01   0.00000000000000E+00   2.12219568930383E-12   9.57496797640015E-07
     -2.58643570684969E-09   9.54912484128855E-07   2.32843433966845E-13   0.00000000000000E+00   0.00000000000000E+00
      0.00000000000000E+00  -2.51388972037313E-11  -1.97180790314045E-16   2.30972961748365E-07   2.30947822653980E-07
     -7.39615069801406E-14  -4.00000000000000E+01  -4.00000000000000E+01   0.00000000000000E+00  -6.84161649529248E-07
     -5.94645843735259E-15  -5.01698651307133E-07  -1.18586030678284E-06  -1.58881926986705E-13
      2.78765541076660E-10
      8.00000000000000E-01   8.00000000000000E-01   0.00000000000000E+00  -1.33001456076049E-12   9.55701962609075E-07
     -1.97826706942336E-09   9.53722365525091E-07   2.32859888524531E-13   0.00000000000000E+00   0.00000000000000E+00
      0.00000000000000E+00  -2.15752467928199E-11  -1.97180819411645E-16   2.14780586181804E-07   2.14759010737830E-07
     -7.39533880743662E-14  -4.00000000000000E+01  -4.00000000000000E+01   0.00000000000000E+00  -6.62824052150149E-07
     -5.94705449693284E-15  -5.05657318165722E-07  -1.16848137626293E-06  -1.58906500450165E-13
      3.33502277374268E-10
      8.00000000000000E-01   8.00000000000000E-01   0.00000000000000E+00  -3.78350403858137E-12   9.49960737028395E-07
     -1.32686181764218E-09   9.48630091706715E-07   2.32884213760137E-13   0.00000000000000E+00   0.00000000000000E+00
      0.00000000000000E+00  -1.92645256477427E-11  -1.97180859380053E-16   1.93557215715709E-07   1.93537950992880E-07
     -7.39422319714529E-14  -4.00000000000000E+01  -4.00000000000000E+01   0.00000000000000E+00  -6.33860279274906E-07
     -5.94791539307899E-15  -5.08307757476773E-07  -1.14216804269959E-06  -1.58941981788686E-13
      3.74554829597473E-10
      8.00000000000000E-01   8.00000000000000E-01   0.00000000000000E+00  -4.35478190201273E-12   9.44757936216341E-07
     -9.88540940606747E-10   9.43765040493833E-07   2.32902192510490E-13   0.00000000000000E+00   0.00000000000000E+00
      0.00000000000000E+00  -1.89088473159865E-11  -1.97180889030105E-16   1.78610688326205E-07   1.78591779281708E-07
     -7.39346029958041E-14  -4.00000000000000E+01  -4.00000000000000E+01   0.00000000000000E+00  -6.13789041245625E-07
     -5.94853683347763E-15  -5.08567772581379E-07  -1.12235681977554E-06  -1.58967589514687E-13
      4.36133657932282E-10
      8.00000000000000E-01   8.00000000000000E-01   0.00000000000000E+00  -4.25131051560965E-12   9.37199107743655E-07
     -6.39835310746199E-10   9.36555021122393E-07   2.32928813548490E-13   0.00000000000000E+00   0.00000000000000E+00
      0.00000000000000E+00  -1.93688259866975E-11  -1.97180935750736E-16   1.56126478294240E-07   1.56107109271072E-07
     -7.39243083817492E-14  -4.00000000000000E+01  -4.00000000000000E+01   0.00000000000000E+00  -5.85315037413443E-07
     -5.94943274389006E-15  -5.07347087030591E-07  -1.09266213039347E-06  -1.59004505166741E-13
      4.82317779183388E-10
      8.00000000000000E-01   8.00000000000000E-01   0.00000000000000E+00  -3.78785755840465E-12   9.32227578626355E-07
     -4.66289989734268E-10   9.31757500779062E-07   2.32948570708769E-13   0.00000000000000E+00   0.00000000000000E+00
      0.00000000000000E+00  -2.00864423705472E-11  -1.97180973322116E-16   1.38722639632989E-07   1.38702552993438E-07
     -7.39175073372251E-14  -4.00000000000000E+01  -4.00000000000000E+01   0.00000000000000E+00  -5.64833882861875E-07
     -5.95007728591348E-15  -5.05626164960551E-07  -1.07046005377250E-06  -1.59031063371547E-13
      5.51593961060047E-10
      8.00000000000000E-01   8.00000000000000E-01   0.00000000000000E+00  -2.89712149707099E-12   9.26299211434111E-07
     -2.94317901443895E-10   9.26001996411170E-07   2.32978008271383E-13   0.00000000000000E+00   0.00000000000000E+00
      0.00000000000000E+00  -2.13048234050824E-11  -1.97181034256735E-16   1.11339717894841E-07   1.11318412874255E-07
     -7.39088521392296E-14  -4.00000000000000E+01  -4.00000000000000E+01   0.00000000000000E+00  -5.34972153840615E-07
     -5.95100169810833E-15  -5.02348249493807E-07  -1.03732040928542E-06  -1.59069156132153E-13
      6.03551097467542E-10
      8.00000000000000E-01   8.00000000000000E-01   0.00000000000000E+00  -2.20378141416112E-12   9.23083163955432E-07
     -2.12321838089456E-10   9.22868638335929E-07   2.33000013745178E-13   0.00000000000000E+00   0.00000000000000E+00
      0.00000000000000E+00  -2.21868937797397E-11  -1.97181083506211E-16   8.97624064241349E-08   8.97402193331741E-08
     -7.39036323261867E-14  -4.00000000000000E+01  -4.00000000000000E+01   0.00000000000000E+00  -5.13044408116554E-07
     -5.95166231939693E-15  -4.99564443600888E-07  -1.01260885766910E-06  -1.59096381418991E-13
      6.81486802078783E-10
      8.00000000000000E-01   8.00000000000000E-01   0.00000000000000E+00  -1.25454826745492E-12   9.20066935395526E-07
     -1.34014817866424E-10   9.19931666029392E-07   2.33033058904347E-13   0.00000000000000E+00   0.00000000000000E+00
      0.00000000000000E+00  -2.33492153776310E-11  -1.97181162627944E-16   5.58715135787134E-08   5.58481641661546E-08
     -7.38979573014626E-14  -4.00000000000000E+01  -4.00000000000000E+01   0.00000000000000E+00  -4.80641582669069E-07
     -5.95260174193091E-15  -4.95138241573877E-07  -9.75779830195547E-07  -1.59135101602885E-13
      7.39938580537215E-10
      8.00000000000000E-01   8.00000000000000E-01   0.00000000000000E+00  -6.43877553429837E-13   9.19051268429248E-07
     -9.80609969947196E-11   9.18952563554700E-07   2.33057956756683E-13   0.00000000000000E+00   0.00000000000000E+00
      0.00000000000000E+00  -2.40633480859079E-11  -1.97181225711442E-16   2.94163740832337E-08   2.93923105379665E-08
     -7.38954630826433E-14  -4.00000000000000E+01  -4.00000000000000E+01   0.00000000000000E+00  -4.56629770506089E-07
     -5.95326622858174E-15  -4.91715097633310E-07  -9.48344874092665E-07  -1.59162493674039E-13
      8.27616248224862E-10
      8.00000000000000E-01   8.00000000000000E-01   0.00000000000000E+00   8.65825099647649E-14   9.19119835963957E-07
     -6.46400313223749E-11   9.19055282515144E-07   2.33095632180091E-13   0.00000000000000E+00   0.00000000000000E+00
      0.00000000000000E+00  -2.48775866179209E-11  -1.97181325500146E-16  -1.15456559041359E-08  -1.15705336879352E-08
     -7.38946672581385E-14  -4.00000000000000E+01  -4.00000000000000E+01   0.00000000000000E+00  -4.20963801218329E-07
     -5.95419933478597E-15  -4.86520941654680E-07  -9.07484748827208E-07  -1.59200964921952E-13
      9.59132749756332E-10
      8.00000000000000E-01   8.00000000000000E-01   0.00000000000000E+00   7.54034792005630E-13   9.21708879464746E-07
     -3.91486120829545E-11   9.21670484887455E-07   2.33153153678160E-13   0.00000000000000E+00   0.00000000000000E+00
      0.00000000000000E+00  -2.55074611728578E-11  -1.97181484702093E-16  -7.48144712970786E-08  -7.48399789554330E-08
     -7.39003039226579E-14  -4.00000000000000E+01  -4.00000000000000E+01   0.00000000000000E+00  -3.68122380705602E-07
     -5.95545751472144E-15  -4.78708119270963E-07  -8.46830505932023E-07  -1.59252849755502E-13
      1.05777012590494E-09
      8.00000000000000E-01   8.00000000000000E-01   0.00000000000000E+00   8.90891753452064E-13   9.24673180944411E-07
     -2.97169871776632E-11   9.24644354848987E-07   2.33197229268372E-13   0.00000000000000E+00   0.00000000000000E+00
      0.00000000000000E+00  -2.54818768847532E-11  -1.97181610022433E-16  -1.22791059216040E-07  -1.22816541290107E-07
     -7.39100020862378E-14  -4.00000000000000E+01  -4.00000000000000E+01   0.00000000000000E+00  -3.28956799744733E-07
     -5.95629098589569E-15  -4.72871007857853E-07  -8.01827813558877E-07  -1.59287227182134E-13
      1.20572619012784E-09
      8.00000000000000E-01   8.00000000000000E-01   0.00000000000000E+00   3.34640581428159E-13   9.28420146616077E-07
     -2.18576479892178E-11   9.28398623608669E-07   2.33264890259389E-13   0.00000000000000E+00   0.00000000000000E+00
      0.00000000000000E+00  -2.44119541341084E-11  -1.97181804386409E-16  -1.93276922804350E-07  -1.93301334955666E-07
     -7.39332908975894E-14  -4.00000000000000E+01  -4.00000000000000E+01   0.00000000000000E+00  -2.70918536274215E-07
     -5.95736660551702E-15  -4.64178746421422E-07  -7.35097288653003E-07  -1.59331599361799E-13
      1.31669323829502E-09
      8.00000000000000E-01   8.00000000000000E-01   0.00000000000000E+00  -8.78672208378370E-13   9.28628141705162E-07
     -1.84536533818926E-11   9.28608809379572E-07   2.33316665864483E-13   0.00000000000000E+00   0.00000000000000E+00
      0.00000000000000E+00  -2.25119173463267E-11  -1.97181952273643E-16  -2.42911836959721E-07  -2.42934349074249E-07
     -7.39573891996874E-14  -4.00000000000000E+01  -4.00000000000000E+01   0.00000000000000E+00  -2.27963353901061E-07
     -5.95803745303085E-15  -4.57711100446229E-07  -6.85674460305327E-07  -1.59359276664796E-13
      1.39991852442040E-09
      8.00000000000000E-01   8.00000000000000E-01   0.00000000000000E+00  -2.37430172143403E-12   9.25814052301258E-07
     -1.65903999433689E-11   9.25795087599593E-07   2.33355836152639E-13   0.00000000000000E+00   0.00000000000000E+00
      0.00000000000000E+00  -2.02712281568053E-11  -1.97182061269707E-16  -2.76791082265722E-07  -2.76811353691061E-07
     -7.39789144764135E-14  -4.00000000000000E+01  -4.00000000000000E+01   0.00000000000000E+00  -1.96093921616201E-07
     -5.95846512375366E-15  -4.52889806333865E-07  -6.48983733908531E-07  -1.59376921676226E-13
      1.52475645360848E-09
      8.00000000000000E-01   8.00000000000000E-01   0.00000000000000E+00  -5.72002042589541E-12   9.13830459049384E-07
     -1.44360073976048E-11   9.13810303021560E-07   2.33414426280429E-13   0.00000000000000E+00   0.00000000000000E+00
      0.00000000000000E+00  -1.53445608157112E-11  -1.97182210478946E-16  -3.19139886695200E-07  -3.19155231453198E-07
     -7.40159721010208E-14  -4.00000000000000E+01  -4.00000000000000E+01   0.00000000000000E+00  -1.48949640561217E-07
     -5.95898703990357E-15  -4.45705425048156E-07  -5.94655071568361E-07  -1.59398454179408E-13
      1.61838490049953E-09
      8.00000000000000E-01   8.00000000000000E-01   0.00000000000000E+00  -9.10400198465403E-12   8.96577082539275E-07
     -1.31583957161656E-11   8.96554820141574E-07   2.33457550520461E-13   0.00000000000000E+00   0.00000000000000E+00
      0.00000000000000E+00  -1.03691565098280E-11  -1.97182298440483E-16  -3.41948927696001E-07  -3.41959297049693E-07
     -7.40467779580561E-14  -4.00000000000000E+01  -4.00000000000000E+01   0.00000000000000E+00  -1.14240689645493E-07
     -5.95928566785377E-15  -4.40354827487102E-07  -5.54595523091880E-07  -1.59410772562406E-13
      1.75882757083612E-09
      8.00000000000000E-01   8.00000000000000E-01   0.00000000000000E+00  -1.52420199227183E-11   8.53358371387068E-07
     -1.15848359527585E-11   8.53331544531193E-07   2.33518977007484E-13   0.00000000000000E+00   0.00000000000000E+00
      0.00000000000000E+00  -1.20340472749192E-12  -1.97182351068132E-16  -3.57243775590000E-07  -3.57244979191910E-07
     -7.40957228750770E-14  -4.00000000000000E+01  -4.00000000000000E+01   0.00000000000000E+00  -6.36945277332749E-08
     -5.95958838943482E-15  -4.32392031646421E-07  -4.96086565339284E-07  -1.59423254132408E-13
      1.86415957358856E-09
      8.00000000000000E-01   8.00000000000000E-01   0.00000000000000E+00  -2.01841542175013E-11   8.05686891903704E-07
     -1.06013254978168E-11   8.05656106423988E-07   2.33560927043386E-13   0.00000000000000E+00   0.00000000000000E+00
      0.00000000000000E+00   6.40410635655997E-12  -1.97182292631125E-16  -3.51742896150534E-07  -3.51736492241360E-07
     -7.41328807687298E-14  -4.00000000000000E+01  -4.00000000000000E+01   0.00000000000000E+00  -2.74479156686488E-08
     -5.95970478959700E-15  -4.26471692554278E-07  -4.53919614182631E-07  -1.59428046274655E-13
      2.02215757771722E-09
      8.00000000000000E-01   8.00000000000000E-01   0.00000000000000E+00  -2.67115686511374E-11   7.10356620012126E-07
     -9.34950019303329E-12   7.10320558943281E-07   2.33613777831250E-13   0.00000000000000E+00   0.00000000000000E+00
      0.00000000000000E+00   1.71365971040485E-11  -1.97181963101161E-16  -3.15648238751393E-07  -3.15631102351470E-07
     -7.41854169944192E-14  -4.00000000000000E+01  -4.00000000000000E+01   0.00000000000000E+00   2.29919183065813E-08
     -5.95971295901764E-15  -4.17681368938680E-07  -3.94689456591812E-07  -1.59428360836831E-13
      2.14065608081371E-09
      8.00000000000000E-01   8.00000000000000E-01   0.00000000000000E+00  -2.99726614972291E-11   6.23827388437927E-07
     -8.54994438330787E-12   6.23788865832047E-07   2.33643451554611E-13   0.00000000000000E+00   0.00000000000000E+00
      0.00000000000000E+00   2.33549313986004E-11  -1.97181472382895E-16  -2.69492226200936E-07  -2.69468871466719E-07
     -7.42198409066479E-14  -4.00000000000000E+01  -4.00000000000000E+01   0.00000000000000E+00   5.68452827333272E-08
     -5.95959835951363E-15  -4.11165271139059E-07  -3.54319994365330E-07  -1.59423610647963E-13
      2.31840383545845E-09
      8.00000000000000E-01   8.00000000000000E-01   0.00000000000000E+00  -3.10407918464969E-11   4.83438094638286E-07
     -7.52246555462998E-12   4.83399531380885E-07   2.33669178046729E-13   0.00000000000000E+00   0.00000000000000E+00
      0.00000000000000E+00   2.78850016410452E-11  -1.97180266008348E-16  -1.81647416876132E-07  -1.81619532071672E-07
     -7.42595610468875E-14  -4.00000000000000E+01  -4.00000000000000E+01   0.00000000000000E+00   9.97497598128884E-08
     -5.95926014311914E-15  -4.01529753162841E-07  -3.01779999309213E-07  -1.59409616999841E-13
      2.45171465144200E-09
      8.00000000000000E-01   8.00000000000000E-01   0.00000000000000E+00  -2.88634689119388E-11   3.80352393418446E-07
     -6.86269504718779E-12   3.80316667254486E-07   2.33673299986203E-13   0.00000000000000E+00   0.00000000000000E+00
      0.00000000000000E+00   2.73133279811541E-11  -1.97178977420293E-16  -1.11197049253539E-07  -1.11169736122737E-07
     -7.42787150495979E-14  -4.00000000000000E+01  -4.00000000000000E+01   0.00000000000000E+00   1.25276728432694E-07
     -5.95889659987147E-15  -3.94423653605548E-07  -2.69146931131751E-07  -1.59394584936606E-13
      2.65168087541734E-09
      8.00000000000000E-01   8.00000000000000E-01   0.00000000000000E+00  -2.24468278648785E-11   2.47732673684903E-07
     -6.01038624361295E-12   2.47704216470795E-07   2.33657469483030E-13   0.00000000000000E+00   0.00000000000000E+00
      0.00000000000000E+00   2.18020538041152E-11  -1.97176504114687E-16  -1.71253790553201E-08  -1.71035771986925E-08
     -7.42908427236993E-14  -4.00000000000000E+01  -4.00000000000000E+01   0.00000000000000E+00   1.53381471490772E-07
     -5.95822019950313E-15  -3.83982104804653E-07  -2.30600639272102E-07  -1.59366626759332E-13
      2.80165554339884E-09
      8.00000000000000E-01   8.00000000000000E-01   0.00000000000000E+00  -1.67279044442236E-11   1.72041636288032E-07
     -5.45796402269683E-12   1.72019450419565E-07   2.33631428738295E-13   0.00000000000000E+00   0.00000000000000E+00
      0.00000000000000E+00   1.59278068611196E-11  -1.97174342004402E-16   3.66698363649632E-08   3.66857639746500E-08
     -7.42889052850124E-14  -4.00000000000000E+01  -4.00000000000000E+01   0.00000000000000E+00   1.67627066388644E-07
     -5.95763690226452E-15  -3.76332274825222E-07  -2.08705214394214E-07  -1.59342523453282E-13
      2.91413654438496E-09
      8.00000000000000E-01   8.00000000000000E-01   0.00000000000000E+00  -1.27360309405951E-11   1.29344575651074E-07
     -5.08250033951645E-12   1.29326757119794E-07   2.33606050110242E-13   0.00000000000000E+00   0.00000000000000E+00
      0.00000000000000E+00   1.15769128967243E-11  -1.97172636529988E-16   6.59937646425526E-08   6.60053413582767E-08
     -7.42828267749564E-14  -4.00000000000000E+01  -4.00000000000000E+01   0.00000000000000E+00   1.75364553286404E-07
     -5.95716976150001E-15  -3.70696645807305E-07  -1.95332098478071E-07  -1.59323223335284E-13
      2.99849729512456E-09
      8.00000000000000E-01   8.00000000000000E-01   0.00000000000000E+00  -1.01233927026107E-11   1.04467636875586E-07
     -4.81949915474413E-12   1.04452693983728E-07   2.33584607649568E-13   0.00000000000000E+00   0.00000000000000E+00
      0.00000000000000E+00   8.65503960648543E-12  -1.97171351368850E-16   8.21524682391278E-08   8.21611230815629E-08
     -7.42763731759520E-14  -4.00000000000000E+01  -4.00000000000000E+01   0.00000000000000E+00   1.79908928517896E-07
     -5.95680692757017E-15  -3.66522739626381E-07  -1.86613817065291E-07  -1.59308234473615E-13
      3.06176785817925E-09
      8.00000000000000E-01   8.00000000000000E-01   0.00000000000000E+00  -8.42226455630057E-12   8.93061152064265E-08
     -4.63161094124327E-12   8.92930613309289E-08   2.33567501145872E-13   0.00000000000000E+00   0.00000000000000E+00
      0.00000000000000E+00   6.72004880392039E-12  -1.97170400662108E-16   9.13559374193558E-08   9.13626572709894E-08
     -7.42707410050496E-14  -4.00000000000000E+01  -4.00000000000000E+01   0.00000000000000E+00   1.82762461896119E-07
     -5.95652914596040E-15  -3.63418174541508E-07  -1.80655718601918E-07  -1.59296760140825E-13
      3.15667370276129E-09
      8.00000000000000E-01   8.00000000000000E-01   0.00000000000000E+00  -6.29505674111816E-12   7.12638372402753E-08
     -4.36345415762164E-12   7.12531787293765E-08   2.33540629443818E-13   0.00000000000000E+00   0.00000000000000E+00
      0.00000000000000E+00   4.27038464969221E-12  -1.97169018479991E-16   1.01182735405936E-07   1.01187005593416E-07
     -7.42613878515485E-14  -4.00000000000000E+01  -4.00000000000000E+01   0.00000000000000E+00   1.86353012247335E-07
     -5.95610500308701E-15  -3.58793190614023E-07  -1.72440184322793E-07  -1.59279241592269E-13
      3.29903246963436E-09
      8.00000000000000E-01   8.00000000000000E-01   0.00000000000000E+00  -3.97115454241623E-12   5.24284688716413E-08
     -3.98914517138817E-12   5.24205085719275E-08   2.33498512626647E-13   0.00000000000000E+00   0.00000000000000E+00
      0.00000000000000E+00   1.54924911660978E-12  -1.97167091367392E-16   1.08869263067228E-07   1.08870812119178E-07
     -7.42461089266707E-14  -4.00000000000000E+01  -4.00000000000000E+01   0.00000000000000E+00   1.90596960202175E-07
     -5.95545514709158E-15  -3.51888274937826E-07  -1.61291320691106E-07  -1.59252403699978E-13
      3.51257061994395E-09
      8.00000000000000E-01   8.00000000000000E-01   0.00000000000000E+00  -1.96573509252090E-12   3.62089669678324E-08
     -3.48350808973238E-12   3.62035177246501E-08   2.33433459245384E-13   0.00000000000000E+00   0.00000000000000E+00
      0.00000000000000E+00  -8.35506579639619E-13  -1.97164627244155E-16   1.09954226308440E-07   1.09953390604695E-07
     -7.42222674012944E-14  -4.00000000000000E+01  -4.00000000000000E+01   0.00000000000000E+00   1.95252438081476E-07
     -5.95445706081446E-15  -3.41409340456365E-07  -1.46156908329346E-07  -1.59211191844089E-13
      3.67272423267615E-09
      8.00000000000000E-01   8.00000000000000E-01   0.00000000000000E+00  -1.22540638164372E-12   2.95664051263866E-08
     -3.14394291248269E-12   2.95620357770925E-08   2.33384407176537E-13   0.00000000000000E+00   0.00000000000000E+00
      0.00000000000000E+00  -1.71697550927858E-12  -1.97163146453176E-16   1.05949036800301E-07   1.05947319627629E-07
     -7.42046893616334E-14  -4.00000000000000E+01  -4.00000000000000E+01   0.00000000000000E+00   1.97725917579759E-07
     -5.95369467621984E-15  -3.33235267030785E-07  -1.35509355404721E-07  -1.59179717814904E-13
      3.91295465177445E-09
      8.00000000000000E-01   8.00000000000000E-01   0.00000000000000E+00  -7.07682920489895E-13   2.35424880100975E-08
     -2.69151832435653E-12   2.35390888088526E-08   2.33311917848299E-13   0.00000000000000E+00   0.00000000000000E+00
      0.00000000000000E+00  -2.30221573943643E-12  -1.97161480414393E-16   9.65930343455905E-08   9.65907319326896E-08
     -7.41799659371468E-14  -4.00000000000000E+01  -4.00000000000000E+01   0.00000000000000E+00   1.99744660414063E-07
     -5.95253746113468E-15  -3.19874475203068E-07  -1.20129820741542E-07  -1.59131951911152E-13
      4.09312746609817E-09
      8.00000000000000E-01   8.00000000000000E-01   0.00000000000000E+00  -5.46653698146908E-13   2.05554306641700E-08
     -2.39321949472530E-12   2.05524907909771E-08   2.33259011395217E-13   0.00000000000000E+00   0.00000000000000E+00
      0.00000000000000E+00  -2.43552077292785E-12  -1.97160604876712E-16   8.84168456627503E-08   8.84144099448167E-08
     -7.41630467654025E-14  -4.00000000000000E+01  -4.00000000000000E+01   0.00000000000000E+00   1.99585409616070E-07
     -5.95166545864081E-15  -3.08552304400198E-07  -1.08966900735794E-07  -1.59095964629814E-13
      4.36338668758375E-09
      8.00000000000000E-01   8.00000000000000E-01   0.00000000000000E+00  -4.29791522442234E-13   1.70614642586012E-08
     -2.00406786311409E-12   1.70590303992157E-08   2.33183007089407E-13   0.00000000000000E+00   0.00000000000000E+00