DF-ISE text

Info {
  version   = 1.0
  type      = xyplot
  datasets  = [
    "time"
    "Ntop_0_1 OuterVoltage" "Ntop_0_1 InnerVoltage" "Ntop_0_1 QuasiFermiPotential" "Ntop_0_1 DisplacementCurrent" "Ntop_0_1 eCurrent"
    "Ntop_0_1 hCurrent" "Ntop_0_1 TotalCurrent" "Ntop_0_1 Charge" "Ntop_1_0 OuterVoltage" "Ntop_1_0 InnerVoltage"
    "Ntop_1_0 QuasiFermiPotential" "Ntop_1_0 DisplacementCurrent" "Ntop_1_0 eCurrent" "Ntop_1_0 hCurrent" "Ntop_1_0 TotalCurrent"
    "Ntop_1_0 Charge" "Ntop_1_1 OuterVoltage" "Ntop_1_1 InnerVoltage" "Ntop_1_1 QuasiFermiPotential" "Ntop_1_1 DisplacementCurrent"
    "Ntop_1_1 eCurrent" "Ntop_1_1 hCurrent" "Ntop_1_1 TotalCurrent" "Ntop_1_1 Charge" "Ptop OuterVoltage"
    "Ptop InnerVoltage" "Ptop QuasiFermiPotential" "Ptop DisplacementCurrent" "Ptop eCurrent" "Ptop hCurrent"
    "Ptop TotalCurrent" "Ptop Charge" "Pbot OuterVoltage" "Pbot InnerVoltage" "Pbot QuasiFermiPotential"
    "Pbot DisplacementCurrent" "Pbot eCurrent" "Pbot hCurrent" "Pbot TotalCurrent" "Pbot Charge"
    "Ntop_0_0 OuterVoltage" "Ntop_0_0 InnerVoltage" "Ntop_0_0 QuasiFermiPotential" "Ntop_0_0 DisplacementCurrent" "Ntop_0_0 eCurrent"
    "Ntop_0_0 hCurrent" "Ntop_0_0 TotalCurrent" "Ntop_0_0 Charge" ]
  functions = [
    Time
    OuterVoltage InnerVoltage QuasiFermiPotential DisplacementCurrent eCurrent
    hCurrent TotalCurrent Charge OuterVoltage InnerVoltage
    QuasiFermiPotential DisplacementCurrent eCurrent hCurrent TotalCurrent
    Charge OuterVoltage InnerVoltage QuasiFermiPotential DisplacementCurrent
    eCurrent hCurrent TotalCurrent Charge OuterVoltage
    InnerVoltage QuasiFermiPotential DisplacementCurrent eCurrent hCurrent
    TotalCurrent Charge OuterVoltage InnerVoltage QuasiFermiPotential
    DisplacementCurrent eCurrent hCurrent TotalCurrent Charge
    OuterVoltage InnerVoltage QuasiFermiPotential DisplacementCurrent eCurrent
    hCurrent TotalCurrent Charge ]
}

Data {
      5.00000000000000E-13
      8.00000000000000E-01   8.00000000000000E-01   0.00000000000000E+00  -1.77549197577096E-16   8.77765936586294E-14
      2.07602318851322E-17   8.76198046929374E-14   1.89469901580725E-13   8.00000000000000E-01   8.00000000000000E-01
      0.00000000000000E+00  -4.36218103437238E-15   8.86858963811566E-14   2.07573405829460E-17   8.43444726873671E-14
      2.70993974897660E-13   8.00000000000000E-01   8.00000000000000E-01   0.00000000000000E+00  -7.58865506368528E-16
      8.48624535064248E-14   2.07590677228079E-17   8.41243470677791E-14   2.48061107336048E-13   0.00000000000000E+00
      0.00000000000000E+00   0.00000000000000E+00  -4.17920141847370E-13   1.82677791453716E-12   5.57353133923583E-06
      5.57353274809360E-06  -1.54942418414705E-13  -5.10000000000000E+01  -5.10000000000000E+01   0.00000000000000E+00
     -8.94638479733719E-14   3.62017854819096E-12  -5.57353662487172E-06  -5.57353309415702E-06  -7.61591442994555E-13
      8.00000000000000E-01   8.00000000000000E-01   0.00000000000000E+00  -9.93025624720473E-16   9.09470669180984E-14
      2.07593354436367E-17   8.99748006288216E-14   2.08008877594828E-13
      1.25000000000000E-12
      8.00000000000000E-01   8.00000000000000E-01   0.00000000000000E+00   2.86674281973128E-15   8.78508591252845E-14
      2.07603013032321E-17   9.07383622463191E-14   1.89469901580726E-13   8.00000000000000E-01   8.00000000000000E-01
      0.00000000000000E+00   1.09316893056623E-15   8.81104988701954E-14   2.07539135244224E-17   8.92244217142860E-14
      2.70993974897661E-13   8.00000000000000E-01   8.00000000000000E-01   0.00000000000000E+00   1.75284335227872E-15
      8.65691348094530E-14   2.07593305071433E-17   8.83427374922388E-14   2.48061107336049E-13   0.00000000000000E+00
      0.00000000000000E+00   0.00000000000000E+00  -4.48577603297653E-13   8.43593539286248E-12   5.57352548461184E-06
      5.57353347196963E-06  -1.54942418414245E-13  -5.10000000000000E+01  -5.10000000000000E+01   0.00000000000000E+00
     -6.10788858270370E-13   1.67971450333706E-11  -5.57355003531531E-06  -5.57353384895913E-06  -7.61591442994815E-13
      8.00000000000000E-01   8.00000000000000E-01   0.00000000000000E+00   2.82938957394142E-15   1.05833819084160E-13
      2.07592292161554E-17   1.08683967887318E-13   2.08008877594622E-13
      2.37500000000000E-12
      8.00000000000000E-01   8.00000000000000E-01   0.00000000000000E+00  -1.36233811909783E-15   1.14267039420039E-13
      2.07606435286779E-17   1.12925461944469E-13   1.89469901580742E-13   8.00000000000000E-01   8.00000000000000E-01
      0.00000000000000E+00  -4.86624627897414E-15   1.13995227823420E-13   2.07550549374393E-17   1.09149736599383E-13
      2.70993974897676E-13   8.00000000000000E-01   8.00000000000000E-01   0.00000000000000E+00  -3.83026089591462E-15
      9.93435321329060E-14   2.07591579656234E-17   9.55340303949570E-14   2.48061107336056E-13   0.00000000000000E+00
      0.00000000000000E+00   0.00000000000000E+00   8.16175908922373E-13   6.98292990960232E-11   5.57347141461830E-06
      5.57354206009331E-06  -1.54942418407385E-13  -5.10000000000000E+01  -5.10000000000000E+01   0.00000000000000E+00
     -6.68253774588852E-12   1.39130179255635E-10  -5.57367513057303E-06  -5.57354268293152E-06  -7.61591442998662E-13
      8.00000000000000E-01   8.00000000000000E-01   0.00000000000000E+00   6.21868892475382E-15   2.98989533345224E-13
      2.07590773921913E-17   3.05228981347370E-13   2.08008877591572E-13
      4.06250000000000E-12
      8.00000000000000E-01   8.00000000000000E-01   0.00000000000000E+00   1.65276551856254E-14   6.37119207087203E-13
      2.07607936738056E-17   6.53667623066502E-13   1.89469901581219E-13   8.00000000000000E-01   8.00000000000000E-01
      0.00000000000000E+00   1.73141800566672E-14   6.37184064584825E-13   2.07533307129393E-17   6.54518997972205E-13
      2.70993974898155E-13   8.00000000000000E-01   8.00000000000000E-01   0.00000000000000E+00   8.30060806438589E-15
      3.33760790572281E-13   2.07594344378335E-17   3.42082158071105E-13   2.48061107336270E-13   0.00000000000000E+00
      0.00000000000000E+00   0.00000000000000E+00   8.66139693829483E-12   1.05983421515856E-09   5.57266355272258E-06
      5.57373204833468E-06  -1.54942418202339E-13  -5.10000000000000E+01  -5.10000000000000E+01   0.00000000000000E+00
     -1.41195472851335E-10   2.10989031418800E-09  -5.57570698869461E-06  -5.57373829385328E-06  -7.61591443113745E-13
      8.00000000000000E-01   8.00000000000000E-01   0.00000000000000E+00   1.32696707175404E-13   4.46253235465273E-12
      2.07591550830255E-17   4.59524982098322E-12   2.08008877500441E-13
      6.59375000000000E-12
      8.00000000000000E-01   8.00000000000000E-01   0.00000000000000E+00   3.26305783794497E-13   1.59559045066151E-11
      2.07621442226922E-17   1.62822310525538E-11   1.89469901601375E-13   8.00000000000000E-01   8.00000000000000E-01
      0.00000000000000E+00   3.26286955574896E-13   1.59621347225460E-11   2.07555058680141E-17   1.62884424336268E-11
      2.70993974918342E-13   8.00000000000000E-01   8.00000000000000E-01   0.00000000000000E+00   1.45550828018781E-13
      7.21790844704774E-12   2.07595038916534E-17   7.36348003457042E-12   2.48061107345340E-13   0.00000000000000E+00
      0.00000000000000E+00   0.00000000000000E+00   1.72821944155253E-10   2.12260183317882E-08   5.55799456959036E-06
      5.57939340986631E-06  -1.54942409328377E-13  -5.10000000000000E+01  -5.10000000000000E+01   0.00000000000000E+00
     -4.14525992645023E-09   4.21871975867720E-08  -5.61760374501918E-06  -5.57956180735886E-06  -7.61591448095233E-13
      8.00000000000000E-01   8.00000000000000E-01   0.00000000000000E+00   2.57940630418765E-12   1.25883911966634E-10
      2.07592837783390E-17   1.28463339030106E-10   2.08008873558554E-13
      1.03906250000000E-11
      8.00000000000000E-01   8.00000000000000E-01   0.00000000000000E+00   2.65655129859499E-12   2.09786599811026E-10
      2.07606437644294E-17   2.12443171870264E-10   1.89469902023277E-13   8.00000000000000E-01   8.00000000000000E-01
      0.00000000000000E+00   2.65829335367922E-12   2.09872176551028E-10   2.07568209458835E-17   2.12530490661528E-10
      2.70993975341201E-13   8.00000000000000E-01   8.00000000000000E-01   0.00000000000000E+00   1.18966606461013E-12
      9.41926796766926E-11   2.07592477083599E-17   9.53823665005504E-11   2.48061107535008E-13   0.00000000000000E+00
      0.00000000000000E+00   0.00000000000000E+00   1.43614487966359E-09   1.76929076480782E-07   5.47442642449335E-06
      5.65279164585379E-06  -1.54942219910744E-13  -5.10000000000000E+01  -5.10000000000000E+01   0.00000000000000E+00
     -5.59748000319546E-08   3.50532958977504E-07  -5.94954846163863E-06  -5.65499030269308E-06  -7.61591554554450E-13
      8.00000000000000E-01   8.00000000000000E-01   0.00000000000000E+00   2.09180402747806E-11   1.65738274920760E-09
      2.07583617113702E-17   1.67830081024074E-09   2.08008789565707E-13
      1.60859375000000E-11
      8.00000000000000E-01   8.00000000000000E-01   0.00000000000000E+00   1.28023532010809E-12   4.81504213802288E-10
      2.07610184307101E-17   4.82784469883415E-10   1.89469904176345E-13   8.00000000000000E-01   8.00000000000000E-01
      0.00000000000000E+00   1.28136503277237E-12   4.81714415659012E-10   2.07579436548016E-17   4.82995801449728E-10
      2.70993977503737E-13   8.00000000000000E-01   8.00000000000000E-01   0.00000000000000E+00   5.67731696970340E-13
      2.15303651767086E-10   2.07593765286931E-17   2.15871404223433E-10   2.48061108501455E-13   0.00000000000000E+00
      0.00000000000000E+00   0.00000000000000E+00   7.56922649603070E-10   9.59136049031628E-08   5.66814769644402E-06
      5.76481822399679E-06  -1.54941242257627E-13  -5.10000000000000E+01  -5.10000000000000E+01   0.00000000000000E+00
     -1.34431202970089E-07   1.84706761382957E-07  -5.82007219174812E-06  -5.76979663333525E-06  -7.61592106152053E-13
      8.00000000000000E-01   8.00000000000000E-01   0.00000000000000E+00   1.00384728561777E-11   3.78671916929560E-09
      2.07584022856316E-17   3.79675766291018E-09   2.08008358228143E-13
      2.46289062500000E-11
      8.00000000000000E-01   8.00000000000000E-01   0.00000000000000E+00  -8.79228121151535E-14   5.67786391269063E-10
      2.07606386922003E-17   5.67698489217587E-10   1.89469909440805E-13   8.00000000000000E-01   8.00000000000000E-01
      0.00000000000000E+00  -8.75464996510113E-14   5.68053378425050E-10   2.07586977528790E-17   5.67965852684096E-10
      2.70993982814441E-13   8.00000000000000E-01   8.00000000000000E-01   0.00000000000000E+00  -4.62125933706706E-14
      2.52269214409605E-10   2.07593676987279E-17   2.52223022575602E-10   2.48061110861003E-13   0.00000000000000E+00
      0.00000000000000E+00   0.00000000000000E+00   2.04054814148420E-12   4.20893331841567E-09   5.80667458307143E-06
      5.81088555693799E-06  -1.54938950791352E-13  -5.10000000000000E+01  -5.10000000000000E+01   0.00000000000000E+00
     -1.64978207470279E-07   3.42233301008373E-10  -5.65211398027544E-06  -5.81674995444471E-06  -7.61593408715905E-13
      8.00000000000000E-01   8.00000000000000E-01   0.00000000000000E+00  -5.25193478414879E-13   4.47703531497091E-09
      2.07599084555102E-17   4.47651014225241E-09   2.08007356391008E-13
      3.74433593750000E-11
      8.00000000000000E-01   8.00000000000000E-01   0.00000000000000E+00  -5.63097905181818E-14   5.43073335942071E-10
      2.07605923848911E-17   5.43017046912145E-10   1.89469918833310E-13   8.00000000000000E-01   8.00000000000000E-01
      0.00000000000000E+00  -5.64240543971633E-14   5.43336887487719E-10   2.07543437506435E-17   5.43280484187666E-10
      2.70993992357297E-13   8.00000000000000E-01   8.00000000000000E-01   0.00000000000000E+00  -3.22017983744312E-14
      2.38752973877619E-10   2.07588885088063E-17   2.38720792838133E-10   2.48061115061187E-13   0.00000000000000E+00
      0.00000000000000E+00   0.00000000000000E+00  -1.65304025127066E-12   3.62321314250856E-09   5.80732685122270E-06
      5.81094841132496E-06  -1.54935312998327E-13  -5.10000000000000E+01  -5.10000000000000E+01   0.00000000000000E+00
     -1.61968239460743E-07  -2.66262896711256E-14  -5.65467401783433E-06  -5.81664228392136E-06  -7.61595503826227E-13
      8.00000000000000E-01   8.00000000000000E-01   0.00000000000000E+00  -1.32536607028085E-13   4.36898678830915E-09
      2.07594007718054E-17   4.36885427246152E-09   2.08005790572758E-13
      5.66650390625000E-11
      8.00000000000000E-01   8.00000000000000E-01   0.00000000000000E+00  -7.73109710315741E-14   5.06375451458239E-10
      2.07606930507803E-17   5.06298161247901E-10   1.89469934774228E-13   8.00000000000000E-01   8.00000000000000E-01
      0.00000000000000E+00  -7.73846977770382E-14   5.06630532339165E-10   2.07625087667095E-17   5.06553168403896E-10
      2.70994008692001E-13   8.00000000000000E-01   8.00000000000000E-01   0.00000000000000E+00  -4.16549079737905E-14
      2.18693458640615E-10   2.07591435633501E-17   2.18651824491784E-10   2.48061122151865E-13   0.00000000000000E+00
      0.00000000000000E+00   0.00000000000000E+00  -2.63140685983167E-12   3.07485792976431E-09   5.80683123224611E-06
      5.80990345876901E-06  -1.54930094993773E-13  -5.10000000000000E+01  -5.10000000000000E+01   0.00000000000000E+00
     -1.57290364703073E-07  -2.66263854806005E-14  -5.65809802811576E-06  -5.81538841944522E-06  -7.61598571835795E-13
      8.00000000000000E-01   8.00000000000000E-01   0.00000000000000E+00  -2.53437894723338E-13   4.25371093921214E-09
      2.07600816757087E-17   4.25345752207750E-09   2.08003601211471E-13
      8.54975585937500E-11
      8.00000000000000E-01   8.00000000000000E-01   0.00000000000000E+00  -7.90505858783758E-14   4.44629968422582E-10
      2.07600816757087E-17   4.44550938596785E-10   1.89469961487584E-13   8.00000000000000E-01   8.00000000000000E-01
      0.00000000000000E+00  -7.91175901004056E-14   4.44872794079520E-10   2.07587658204992E-17   4.44793697248185E-10
      2.70994036320794E-13   8.00000000000000E-01   8.00000000000000E-01   0.00000000000000E+00  -4.20614864640742E-14
      1.85735258006787E-10   2.07592665684797E-17   1.85693217279590E-10   2.48061133891045E-13   0.00000000000000E+00
      0.00000000000000E+00   0.00000000000000E+00  -3.51663298542038E-12   2.40145239617481E-09   5.80542165958381E-06
      5.80781959534700E-06  -1.54922770020863E-13  -5.10000000000000E+01  -5.10000000000000E+01   0.00000000000000E+00
     -1.50997072224809E-07  -2.66264875707945E-14  -5.66195539870052E-06  -5.81295249755181E-06  -7.61603015138518E-13
      8.00000000000000E-01   8.00000000000000E-01   0.00000000000000E+00  -2.36583069147657E-13   4.05810091399455E-09
      2.07587036760606E-17   4.05786435168411E-09   2.08000653459956E-13
      1.28746337890625E-10
      8.00000000000000E-01   8.00000000000000E-01   0.00000000000000E+00  -7.84516172102441E-14   3.51866004746745E-10
      2.07600196016251E-17   3.51787573889554E-10   1.89470004313465E-13   8.00000000000000E-01   8.00000000000000E-01
      0.00000000000000E+00  -7.85845430610830E-14   3.52092402935033E-10   2.07606238067313E-17   3.52013839152595E-10
      2.70994081111935E-13   8.00000000000000E-01   8.00000000000000E-01   0.00000000000000E+00  -4.12591087254873E-14
      1.36757142504628E-10   2.07596140804743E-17   1.36715904155517E-10   2.48061152225477E-13   0.00000000000000E+00
      0.00000000000000E+00   0.00000000000000E+00  -3.86503313525835E-12   1.65547739643121E-09   5.80265686016442E-06
      5.80430847252772E-06  -1.54912768338002E-13  -5.10000000000000E+01  -5.10000000000000E+01   0.00000000000000E+00
     -1.43077948005459E-07  -2.66266329226101E-14  -5.66585203089988E-06  -5.80893000553197E-06  -7.61609371257950E-13
      8.00000000000000E-01   8.00000000000000E-01   0.00000000000000E+00  -2.29294952724688E-13   3.78124496127960E-09
      2.07593110969367E-17   3.78101568708619E-09   2.07996901945073E-13
      1.61182922363281E-10
      8.00000000000000E-01   8.00000000000000E-01   0.00000000000000E+00  -7.75239094754717E-14   2.83291555432896E-10
      2.07615251892689E-17   2.83214052284946E-10   1.89470036376486E-13   8.00000000000000E-01   8.00000000000000E-01
      0.00000000000000E+00  -7.76426928663329E-14   2.83505534981018E-10   2.07601510714731E-17   2.83427913048302E-10
      2.70994115034383E-13   8.00000000000000E-01   8.00000000000000E-01   0.00000000000000E+00  -4.04950341726086E-14
      1.00903971192159E-10   2.07598001241253E-17   1.00863496917786E-10   2.48061165447807E-13   0.00000000000000E+00
      0.00000000000000E+00   0.00000000000000E+00  -3.96578318474119E-12   1.25455008882856E-09   5.80035689848578E-06
      5.80160748279143E-06  -1.54905936593400E-13  -5.10000000000000E+01  -5.10000000000000E+01   0.00000000000000E+00
     -1.38117333157601E-07  -2.66267365483399E-14  -5.66773598229207E-06  -5.80585334207641E-06  -7.61613930833215E-13
      8.00000000000000E-01   8.00000000000000E-01   0.00000000000000E+00  -2.28462444633031E-13   3.57858226440239E-09
      2.07591998972419E-17   3.57835382271695E-09   2.07994550567940E-13
      2.09837799072266E-10
      8.00000000000000E-01   8.00000000000000E-01   0.00000000000000E+00  -7.58820627013900E-14   1.82197226506824E-10
      2.07608969829692E-17   1.82121365205020E-10   1.89470081026240E-13   8.00000000000000E-01   8.00000000000000E-01
      0.00000000000000E+00  -7.58898631554234E-14   1.82391849768226E-10   2.07606694491371E-17   1.82315980665740E-10
      2.70994162988409E-13   8.00000000000000E-01   8.00000000000000E-01   0.00000000000000E+00  -3.90327042824025E-14
      4.85992596549980E-11   2.07590873544780E-17   4.85602477098030E-11   2.48061182788569E-13   0.00000000000000E+00
      0.00000000000000E+00   0.00000000000000E+00  -4.10095963959220E-12   8.28563539122638E-10   5.79669458075797E-06
      5.79751904333746E-06  -1.54896585273252E-13  -5.10000000000000E+01  -5.10000000000000E+01   0.00000000000000E+00
     -1.31714961229632E-07  -2.66268846652245E-14  -5.66949015994497E-06  -5.80120514780149E-06  -7.61620493110363E-13
      8.00000000000000E-01   8.00000000000000E-01   0.00000000000000E+00  -2.31481269098786E-13   3.27333833094640E-09
      2.07597294379682E-17   3.27310687043703E-09   2.07991651580397E-13
      2.46328956604004E-10
      8.00000000000000E-01   8.00000000000000E-01   0.00000000000000E+00  -7.43675489952182E-14   1.07904191594790E-10
      2.07606803773513E-17   1.07829844806475E-10   1.89470110270203E-13   8.00000000000000E-01   8.00000000000000E-01
      0.00000000000000E+00  -7.43005215727407E-14   1.08083824277843E-10   2.07605025245840E-17   1.08009544516773E-10
      2.70994195074097E-13   8.00000000000000E-01   8.00000000000000E-01   0.00000000000000E+00  -3.77911791277657E-14
      1.06065266555082E-11   2.07592351920986E-17   1.05687562356157E-11   2.48061193092097E-13   0.00000000000000E+00
      0.00000000000000E+00   0.00000000000000E+00  -4.20341236309351E-12   6.09466853529493E-10   5.79381907517503E-06
      5.79442433861619E-06  -1.54890186482960E-13  -5.10000000000000E+01  -5.10000000000000E+01   0.00000000000000E+00
     -1.27469002273144E-07  -2.66269906559679E-14  -5.67022267491698E-06  -5.79769170381711E-06  -7.61625221523309E-13
      8.00000000000000E-01   8.00000000000000E-01   0.00000000000000E+00  -2.35156956050019E-13   3.04119219152989E-09
      2.07592666792115E-17   3.04095705533311E-09   2.07989909569873E-13
      3.01065692901611E-10
      8.00000000000000E-01   8.00000000000000E-01   0.00000000000000E+00  -7.21085139495888E-14  -7.19536659229843E-13
      2.07580302447654E-17  -7.91624415149187E-13   1.89470145054362E-13   8.00000000000000E-01   8.00000000000000E-01
      0.00000000000000E+00  -7.21615350353665E-14  -5.63348177893727E-13   2.07593504436693E-17  -6.35488953578650E-13
      2.70994234635011E-13   8.00000000000000E-01   8.00000000000000E-01   0.00000000000000E+00  -3.60710095113269E-14
     -4.41689097105571E-11   2.07597569458815E-17  -4.42049599603115E-11   2.48061203139622E-13   0.00000000000000E+00
      0.00000000000000E+00   0.00000000000000E+00  -4.27711016027186E-12   3.85759932515722E-10   5.78936544091197E-06
      5.78974692373433E-06  -1.54881424112611E-13  -5.10000000000000E+01  -5.10000000000000E+01   0.00000000000000E+00
     -1.21632943452576E-07  -2.66271424567781E-14  -5.67075184235871E-06  -5.79238481243843E-06  -7.61632037876276E-13
      8.00000000000000E-01   8.00000000000000E-01   0.00000000000000E+00  -2.44160673397689E-13   2.68376491728444E-09
      2.07590715519838E-17   2.68352077737012E-09   2.07987879159893E-13
      3.42118245124817E-10
      8.00000000000000E-01   8.00000000000000E-01   0.00000000000000E+00  -7.01315112911962E-14  -7.97101545157862E-11
      2.07593813937467E-17  -7.97802652676960E-11   1.89470162979798E-13   8.00000000000000E-01   8.00000000000000E-01
      0.00000000000000E+00  -7.01537030604298E-14  -7.95725815432200E-11   2.07600025695561E-17  -7.96427144862779E-11
      2.70994256499833E-13   8.00000000000000E-01   8.00000000000000E-01   0.00000000000000E+00  -3.45039449624862E-14
     -8.33435949980824E-11   2.07592167177540E-17  -8.33780781838281E-11   2.48061205962636E-13   0.00000000000000E+00
      0.00000000000000E+00   0.00000000000000E+00  -4.30713597874145E-12   2.75561506256719E-10   5.78595129516251E-06
      5.78622254953279E-06  -1.54875431062679E-13  -5.10000000000000E+01  -5.10000000000000E+01   0.00000000000000E+00
     -1.17534714896128E-07  -2.66272511092880E-14  -5.67085088531081E-06  -5.78838562683419E-06  -7.61636946788094E-13
      8.00000000000000E-01   8.00000000000000E-01   0.00000000000000E+00  -2.52830255268999E-13   2.40613116884117E-09
      2.07591114940025E-17   2.40587835934501E-09   2.07986752408508E-13
      3.72907659292221E-10
      8.00000000000000E-01   8.00000000000000E-01   0.00000000000000E+00  -6.86322403532905E-14  -1.37421934968807E-10
      2.07595888693521E-17  -1.37490546449571E-10   1.89470171408418E-13   8.00000000000000E-01   8.00000000000000E-01
      0.00000000000000E+00  -6.86497454075387E-14  -1.37299054556290E-10   2.07575537794420E-17  -1.37367683544144E-10
      2.70994268050494E-13   8.00000000000000E-01   8.00000000000000E-01   0.00000000000000E+00  -3.33445844814845E-14
     -1.11566838113658E-10   2.07587225111764E-17  -1.11600161939417E-10   2.48061205250131E-13   0.00000000000000E+00
      0.00000000000000E+00   0.00000000000000E+00  -4.30706308839566E-12   2.14915569938643E-10   5.78336637203517E-06
      5.78357698054202E-06  -1.54871223520904E-13  -5.10000000000000E+01  -5.10000000000000E+01   0.00000000000000E+00
     -1.14564866872231E-07  -2.66273298736614E-14  -5.67081662516692E-06  -5.78538151866648E-06  -7.61640519797110E-13
      8.00000000000000E-01   8.00000000000000E-01   0.00000000000000E+00  -2.60404654104284E-13   2.19125690025604E-09
      2.07585473442422E-17   2.19099651636049E-09   2.07986098608972E-13
      4.19091780543327E-10
      8.00000000000000E-01   8.00000000000000E-01   0.00000000000000E+00  -6.59272387889331E-14  -2.21317539329671E-10
      2.07601341625647E-17  -2.21383445808326E-10   1.89470175552316E-13   8.00000000000000E-01   8.00000000000000E-01
      0.00000000000000E+00  -6.58991971902123E-14  -2.21218054760051E-10   2.07573746740983E-17  -2.21283933199867E-10
      2.70994277078903E-13   8.00000000000000E-01   8.00000000000000E-01   0.00000000000000E+00  -3.13471258336247E-14
     -1.51921918087906E-10   2.07590592929059E-17  -1.51953244454681E-10   2.48061199472509E-13   0.00000000000000E+00
      0.00000000000000E+00   0.00000000000000E+00  -4.32577046123548E-12   1.48653656847853E-10   5.77946972140924E-06
      5.77961404929562E-06  -1.54865326393012E-13  -5.10000000000000E+01  -5.10000000000000E+01   0.00000000000000E+00
     -1.10228908085073E-07  -2.66274438637648E-14  -5.67064690000712E-06  -5.78087583471963E-06  -7.61645710507429E-13
      8.00000000000000E-01   8.00000000000000E-01   0.00000000000000E+00  -2.72791016483485E-13   1.85667881770528E-09
      2.07586536145874E-17   1.85640604744745E-09   2.07985384796715E-13
      4.88367962419987E-10
      8.00000000000000E-01   8.00000000000000E-01   0.00000000000000E+00  -6.15575118403057E-14  -3.40565406649605E-10
      2.07602118891188E-17  -3.40626943401233E-10   1.89470161915491E-13   8.00000000000000E-01   8.00000000000000E-01
      0.00000000000000E+00  -6.16053170481678E-14  -3.40503841039010E-10   2.07591445106676E-17  -3.40565425596914E-10
      2.70994270989557E-13   8.00000000000000E-01   8.00000000000000E-01   0.00000000000000E+00  -2.82745798042771E-14
     -2.07713213023688E-10   2.07593493958390E-17  -2.07741466844143E-10   2.48061180017751E-13   0.00000000000000E+00
      0.00000000000000E+00   0.00000000000000E+00  -4.32393312693121E-12   8.63959365691082E-11   5.77361765782807E-06
      5.77369972983151E-06  -1.54857313355635E-13  -5.10000000000000E+01  -5.10000000000000E+01   0.00000000000000E+00
     -1.03917649722363E-07  -2.66276059382132E-14  -5.67021727306944E-06  -5.77413494941941E-06  -7.61653127568680E-13
      8.00000000000000E-01   8.00000000000000E-01   0.00000000000000E+00  -2.93270132760122E-13   1.32444667308984E-09
      2.07590920123561E-17   1.32415342371617E-09   2.07984828001516E-13
      5.40325098827481E-10
      8.00000000000000E-01   8.00000000000000E-01   0.00000000000000E+00  -5.79858326217827E-14  -4.24306898202129E-10
      2.07591362336218E-17  -4.24364863275615E-10   1.89470135694925E-13   8.00000000000000E-01   8.00000000000000E-01
      0.00000000000000E+00  -5.79942588091540E-14  -4.24275466289870E-10   2.07625462476648E-17  -4.24333439786133E-10
      2.70994250374113E-13   8.00000000000000E-01   8.00000000000000E-01   0.00000000000000E+00  -2.58296021678488E-14
     -2.45607519009510E-10   2.07589695073055E-17  -2.45633327852708E-10   2.48061156904174E-13   0.00000000000000E+00
      0.00000000000000E+00   0.00000000000000E+00  -4.28337642090555E-12   5.84985139465644E-11   5.76924433731555E-06
      5.76929855245308E-06  -1.54851892609339E-13  -5.10000000000000E+01  -5.10000000000000E+01   0.00000000000000E+00
     -9.92974543829127E-08  -2.66277207679134E-14  -5.66980650048034E-06  -5.76910398149097E-06  -7.61658406625315E-13
      8.00000000000000E-01   8.00000000000000E-01   0.00000000000000E+00  -3.08987456049769E-13   9.00069635473992E-10
      2.07586294679189E-17   8.99760668776571E-10   2.07984756261443E-13
      6.18260803438723E-10
      8.00000000000000E-01   8.00000000000000E-01   0.00000000000000E+00  -5.20434616548369E-14  -5.39707225010254E-10
      2.07599764948211E-17  -5.39759247711933E-10   1.89470070440939E-13   8.00000000000000E-01   8.00000000000000E-01
      0.00000000000000E+00  -5.21258988244224E-14  -5.39721743360394E-10   2.07595949382369E-17  -5.39773848499623E-10
      2.70994192877665E-13   8.00000000000000E-01   8.00000000000000E-01   0.00000000000000E+00  -2.20553554697369E-14
     -2.95724697864920E-10   2.07594393528951E-17  -2.95746732460951E-10   2.48061108770278E-13   0.00000000000000E+00
      0.00000000000000E+00   0.00000000000000E+00  -4.23314827007512E-12   3.34772927830495E-11   5.76273835094439E-06
      5.76276759508891E-06  -1.54844602335991E-13  -5.10000000000000E+01  -5.10000000000000E+01   0.00000000000000E+00
     -9.25059109041771E-08  -2.66278826783077E-14  -5.66910859109559E-06  -5.76161452862765E-06  -7.61665880284183E-13
      8.00000000000000E-01   8.00000000000000E-01   0.00000000000000E+00  -3.32782214808944E-13   2.22546128855370E-10
      2.07601062581602E-17   2.22213367400667E-10   2.07985110531292E-13
      7.35164360355586E-10
      8.00000000000000E-01   8.00000000000000E-01   0.00000000000000E+00  -4.17859804156279E-14  -6.86997020800608E-10
      2.07600683307451E-17  -6.87038786020955E-10   1.89469915223692E-13   8.00000000000000E-01   8.00000000000000E-01
      0.00000000000000E+00  -4.18144813333340E-14  -6.87075491605803E-10   2.07551771006437E-17  -6.87117285331959E-10
      2.70994046222090E-13   8.00000000000000E-01   8.00000000000000E-01   0.00000000000000E+00  -1.59134690862294E-14
     -3.55024761423430E-10   2.07588751638427E-17  -3.55040654133641E-10   2.48061007707740E-13   0.00000000000000E+00
      0.00000000000000E+00   0.00000000000000E+00  -4.15336635338549E-12   1.61006076265143E-11   5.75313145260357E-06
      5.75314339984484E-06  -1.54835372278656E-13  -5.10000000000000E+01  -5.10000000000000E+01   0.00000000000000E+00
     -8.25813629588232E-08  -2.66281032464210E-14  -5.66795529770837E-06  -5.75053668729530E-06  -7.61676112980588E-13
      8.00000000000000E-01   8.00000000000000E-01   0.00000000000000E+00  -3.62606200761245E-13  -8.77153238633073E-10
      2.07595154720527E-17  -8.77515824074319E-10   2.07986516105723E-13
      8.22842028043233E-10
      8.00000000000000E-01   8.00000000000000E-01   0.00000000000000E+00  -3.32297660646740E-14  -7.74909740761986E-10
      2.07609031125081E-17  -7.74942949767148E-10   1.89469755476087E-13   8.00000000000000E-01   8.00000000000000E-01
      0.00000000000000E+00  -3.32983367191515E-14  -7.75027186189734E-10   2.07608170351381E-17  -7.75060463765636E-10
      2.70993889157200E-13   8.00000000000000E-01   8.00000000000000E-01   0.00000000000000E+00  -1.12296615122679E-14
     -3.86596481913314E-10   2.07587992661487E-17  -3.86607690816027E-10   2.48060910842972E-13   0.00000000000000E+00
      0.00000000000000E+00   0.00000000000000E+00  -4.10570429611526E-12   1.09544264401151E-11   5.74604887310161E-06
      5.74605572182375E-06  -1.54829682246926E-13  -5.10000000000000E+01  -5.10000000000000E+01   0.00000000000000E+00
     -7.53236935458973E-08  -2.66282517698669E-14  -5.66704218606830E-06  -5.74236590624245E-06  -7.61683034784018E-13
      8.00000000000000E-01   8.00000000000000E-01   0.00000000000000E+00  -3.69345259724988E-13  -1.75283515244854E-09