DF-ISE text

Info {
  version   = 1.0
  type      = xyplot
  datasets  = [
    "time"
    "Ntop OuterVoltage" "Ntop InnerVoltage" "Ntop QuasiFermiPotential" "Ntop DisplacementCurrent" "Ntop eCurrent"
    "Ntop hCurrent" "Ntop TotalCurrent" "Ntop Charge" "Ptop OuterVoltage" "Ptop InnerVoltage"
    "Ptop QuasiFermiPotential" "Ptop DisplacementCurrent" "Ptop eCurrent" "Ptop hCurrent" "Ptop TotalCurrent"
    "Ptop Charge" "Pbot OuterVoltage" "Pbot InnerVoltage" "Pbot QuasiFermiPotential" "Pbot DisplacementCurrent"
    "Pbot eCurrent" "Pbot hCurrent" "Pbot TotalCurrent" "Pbot Charge" ]
  functions = [
    Time
    OuterVoltage InnerVoltage QuasiFermiPotential DisplacementCurrent eCurrent
    hCurrent TotalCurrent Charge OuterVoltage InnerVoltage
    QuasiFermiPotential DisplacementCurrent eCurrent hCurrent TotalCurrent
    Charge OuterVoltage InnerVoltage QuasiFermiPotential DisplacementCurrent
    eCurrent hCurrent TotalCurrent Charge ]
}

Data {
      5.00000000000000E-13
      8.00000000000000E-01   8.00000000000000E-01   0.00000000000000E+00   9.38822057545375E-15   7.19466112079650E-12
     -6.61848744809156E-12   5.85561893280400E-13   2.34224766837352E-13   0.00000000000000E+00   0.00000000000000E+00
      0.00000000000000E+00  -1.21672331914175E-13  -1.97157898428248E-16   1.75443053677435E-09   1.75430866728453E-09
     -6.21801123149399E-14  -4.50000000000000E+01  -4.50000000000000E+01   0.00000000000000E+00  -3.94435096486687E-13
      1.31984391385206E-11  -1.76769823321985E-09  -1.75489422917781E-09  -1.72044654522412E-13
      1.25000000000000E-12
      8.00000000000000E-01   8.00000000000000E-01   0.00000000000000E+00   1.00506223613026E-13   3.23994860100456E-11
     -3.05397410046282E-11   1.96025122903039E-12   2.34224766837718E-13   0.00000000000000E+00   0.00000000000000E+00
      0.00000000000000E+00  -3.93264433116866E-14  -1.97157898425950E-16   1.75549187916276E-09   1.75545235556155E-09
     -6.21801123143598E-14  -4.50000000000000E+01  -4.50000000000000E+01   0.00000000000000E+00  -2.25394818062234E-12
      6.09108437320186E-11  -1.81606950234197E-09  -1.75741260679058E-09  -1.72044654523358E-13
      2.37500000000000E-12
      8.00000000000000E-01   8.00000000000000E-01   0.00000000000000E+00   7.68961987288974E-13   2.70041303639722E-10
     -2.52688883142723E-10   1.81213824842887E-11   2.34224766843058E-13   0.00000000000000E+00   0.00000000000000E+00
      0.00000000000000E+00   1.02564265564897E-12  -1.97157898400011E-16   1.76825279318294E-09   1.76927823868069E-09
     -6.21801123056633E-14  -4.50000000000000E+01  -4.50000000000000E+01   0.00000000000000E+00  -2.44436393272407E-11
      5.03865846351752E-10  -2.26682182818949E-09  -1.78739962116498E-09  -1.72044654537394E-13
      4.06250000000000E-12
      8.00000000000000E-01   8.00000000000000E-01   0.00000000000000E+00   1.15305233064125E-11   4.19445551935795E-09
     -3.83334895758783E-09   3.72637085076538E-10   2.34224766999893E-13   0.00000000000000E+00   0.00000000000000E+00
      0.00000000000000E+00   1.47528986067620E-11  -1.97157897803840E-16   2.06382980964244E-09   2.07858251109131E-09
     -6.21801120424607E-14  -4.50000000000000E+01  -4.50000000000000E+01   0.00000000000000E+00  -5.15699730946342E-10
      7.63978024822767E-09  -9.57530011344918E-09  -2.45121959616785E-09  -1.72044654957432E-13
      6.59375000000000E-12
      8.00000000000000E-01   8.00000000000000E-01   0.00000000000000E+00   2.29659078719453E-10   8.73426892025335E-08
     -7.67145226383682E-08   1.08578256428847E-08   2.34224773682992E-13   0.00000000000000E+00   0.00000000000000E+00
      0.00000000000000E+00   2.97590024446910E-10  -1.97157879603213E-16   1.10809991457429E-08   1.13785889730319E-08
     -6.21801005222600E-14  -4.50000000000000E+01  -4.50000000000000E+01   0.00000000000000E+00  -1.51571127863192E-08
      1.52755479051752E-07  -1.59834780881350E-07  -2.22364146159165E-08  -1.72044673160732E-13
      1.03906250000000E-11
      8.00000000000000E-01   8.00000000000000E-01   0.00000000000000E+00   1.91912721801810E-09   7.83112554557545E-07
     -6.38512850314855E-07   1.46518831460708E-07   2.34224915378680E-13   0.00000000000000E+00   0.00000000000000E+00
      0.00000000000000E+00   2.46449686276180E-09  -1.97157639653798E-16   1.29767378356205E-07   1.32231875021809E-07
     -6.21798527900058E-14  -4.50000000000000E+01  -4.50000000000000E+01   0.00000000000000E+00  -2.04820204186226E-07
      1.26924292999211E-06  -1.34317343228840E-06  -2.78750706482518E-07  -1.72045062588674E-13
      1.60859375000000E-11
      8.00000000000000E-01   8.00000000000000E-01   0.00000000000000E+00   1.12024221811878E-09   7.00440957894975E-07
     -3.41682073480736E-07   3.59879126632358E-07   2.34225659354922E-13   0.00000000000000E+00   0.00000000000000E+00
      0.00000000000000E+00   1.15681253179937E-09  -1.97157276009959E-16   3.08542846232709E-07   3.09699658567351E-07
     -6.21785792268745E-14  -4.50000000000000E+01  -4.50000000000000E+01   0.00000000000000E+00  -4.91443252986244E-07
      6.68803774232623E-07  -8.46939306446088E-07  -6.69578785199708E-07  -1.72047080128047E-13
      2.46289062500000E-11
      8.00000000000000E-01   8.00000000000000E-01   0.00000000000000E+00   1.49147721546669E-10   4.79238683620957E-07
     -8.53464458548945E-09   4.70853186757014E-07   2.34227517102875E-13   0.00000000000000E+00   0.00000000000000E+00
      0.00000000000000E+00  -1.83275000246002E-10  -1.97157170075033E-16   3.58667862374982E-07   3.58484587177579E-07
     -6.21756844980969E-14  -4.50000000000000E+01  -4.50000000000000E+01   0.00000000000000E+00  -6.00868006594609E-07
      1.23928080928668E-09  -2.29709048149270E-07  -8.29337773934592E-07  -1.72051832604778E-13
      3.74433593750000E-11
      8.00000000000000E-01   8.00000000000000E-01   0.00000000000000E+00   1.08506086888036E-10   5.16430918523757E-07
     -7.19504681888318E-09   5.09344377791762E-07   2.34230809611803E-13   0.00000000000000E+00   0.00000000000000E+00
      0.00000000000000E+00  -1.38359862062870E-10  -1.97157241203926E-16   3.20437997685724E-07   3.20299637626504E-07
     -6.21713671824240E-14  -4.50000000000000E+01  -4.50000000000000E+01   0.00000000000000E+00  -5.86748049024103E-07
     -6.25619360426477E-15  -2.42895960137971E-07  -8.29644015418267E-07  -1.72059442429380E-13
      5.66650390625000E-11
      8.00000000000000E-01   8.00000000000000E-01   0.00000000000000E+00   7.41803421289619E-11   5.55593199385910E-07
     -6.23053690821040E-09   5.49436842819829E-07   2.34236199224599E-13   0.00000000000000E+00   0.00000000000000E+00
      0.00000000000000E+00  -9.97064032627797E-11  -1.97157320404787E-16   2.77298472261461E-07   2.77198765661041E-07
     -6.21656798275743E-14  -4.50000000000000E+01  -4.50000000000000E+01   0.00000000000000E+00  -5.65982941312779E-07
     -6.25653545922393E-15  -2.60652660911556E-07  -8.26635608480871E-07  -1.72070519397026E-13
      8.54975585937500E-11
      8.00000000000000E-01   8.00000000000000E-01   0.00000000000000E+00   4.44037025683106E-11   5.92303061942908E-07
     -5.01924425549544E-09   5.87328221389980E-07   2.34244866056195E-13   0.00000000000000E+00   0.00000000000000E+00
      0.00000000000000E+00  -6.56591316347321E-11  -1.97157400657538E-16   2.32544051720847E-07   2.32478392392055E-07
     -6.21584255074781E-14  -4.50000000000000E+01  -4.50000000000000E+01   0.00000000000000E+00  -5.38801572312140E-07
     -6.25689620431804E-15  -2.81005035212996E-07  -8.19806613782031E-07  -1.72086440548717E-13
      1.28746337890625E-10
      8.00000000000000E-01   8.00000000000000E-01   0.00000000000000E+00   2.05069427523193E-11   6.20513333039113E-07
     -3.62751320053512E-09   6.16906326781330E-07   2.34258446345849E-13   0.00000000000000E+00   0.00000000000000E+00
      0.00000000000000E+00  -3.81160911065858E-11  -1.97157472070416E-16   1.90584579429434E-07   1.90546463141169E-07
     -6.21494311047849E-14  -4.50000000000000E+01  -4.50000000000000E+01   0.00000000000000E+00  -5.05839511929386E-07
     -6.25740854016651E-15  -3.01613271735704E-07  -8.07452789922499E-07  -1.72109015241064E-13
      1.61182922363281E-10
      8.00000000000000E-01   8.00000000000000E-01   0.00000000000000E+00   1.06859863648639E-11   6.29642028061168E-07
     -2.84650927358446E-09   6.26806204773949E-07   2.34268764296164E-13   0.00000000000000E+00   0.00000000000000E+00
      0.00000000000000E+00  -2.69582447647753E-11  -1.97157502375888E-16   1.70673074958559E-07   1.70646116516636E-07
     -6.21436695776986E-14  -4.50000000000000E+01  -4.50000000000000E+01   0.00000000000000E+00  -4.85877967856353E-07
     -6.25777390148596E-15  -3.11574347176461E-07  -7.97452321290588E-07  -1.72125094718464E-13
      2.09837799072266E-10
      8.00000000000000E-01   8.00000000000000E-01   0.00000000000000E+00   2.40218213601783E-12   6.33687749574247E-07
     -1.97951824994033E-09   6.31710633506443E-07   2.34284130991126E-13   0.00000000000000E+00   0.00000000000000E+00
      0.00000000000000E+00  -1.78669594340666E-11  -1.97157527414804E-16   1.50184252080680E-07   1.50166384924088E-07
     -6.21360118389891E-14  -4.50000000000000E+01  -4.50000000000000E+01   0.00000000000000E+00  -4.60975061318173E-07
     -6.25829741712177E-15  -3.20901950854064E-07  -7.81877018430535E-07  -1.72148119152138E-13
      2.46328956604004E-10
      8.00000000000000E-01   8.00000000000000E-01   0.00000000000000E+00  -7.61708414150903E-13   6.32488621988327E-07
     -1.51105632125259E-09   6.30976803958660E-07   2.34295484086796E-13   0.00000000000000E+00   0.00000000000000E+00
      0.00000000000000E+00  -1.46024266956091E-11  -1.97157536383744E-16   1.38951270082976E-07   1.38936667459123E-07
     -6.21308367192088E-14  -4.50000000000000E+01  -4.50000000000000E+01   0.00000000000000E+00  -4.45051579030298E-07
     -6.25867339621934E-15  -3.24861886128811E-07  -7.69913471417782E-07  -1.72164647367588E-13
      3.01065692901611E-10
      8.00000000000000E-01   8.00000000000000E-01   0.00000000000000E+00  -3.01669506810385E-12   6.27854936537569E-07
     -1.00976642863347E-09   6.26842153413867E-07   2.34312184518015E-13   0.00000000000000E+00   0.00000000000000E+00
      0.00000000000000E+00  -1.25009051009413E-11  -1.97157542212391E-16   1.24901374308805E-07   1.24888873206546E-07
     -6.21237621262145E-14  -4.50000000000000E+01  -4.50000000000000E+01   0.00000000000000E+00  -4.23869291024288E-07
     -6.25921435652476E-15  -3.27861729336912E-07  -7.51731026620414E-07  -1.72188422391800E-13
      3.42118245124817E-10
      8.00000000000000E-01   8.00000000000000E-01   0.00000000000000E+00  -3.56933474181008E-12   6.23512680349764E-07
     -7.49748052597936E-10   6.22759362962425E-07   2.34324461518438E-13   0.00000000000000E+00   0.00000000000000E+00
      0.00000000000000E+00  -1.21628547261903E-11  -1.97157543844057E-16   1.15253058896615E-07   1.15240895844732E-07
     -6.21189366728387E-14  -4.50000000000000E+01  -4.50000000000000E+01   0.00000000000000E+00  -4.09405126236620E-07
     -6.25960355118144E-15  -3.28595126310933E-07  -7.38000258807156E-07  -1.72205524845600E-13
      4.03697073459625E-10
      8.00000000000000E-01   8.00000000000000E-01   0.00000000000000E+00  -3.55009579419132E-12   6.17108644774463E-07
     -4.82174797572400E-10   6.16622919881096E-07   2.34342540801867E-13   0.00000000000000E+00   0.00000000000000E+00
      0.00000000000000E+00  -1.25282803318119E-11  -1.97157546264708E-16   1.00762036708263E-07   1.00749508230773E-07
     -6.21124350915329E-14  -4.50000000000000E+01  -4.50000000000000E+01   0.00000000000000E+00  -3.89055517929899E-07
     -6.26016295745209E-15  -3.28316903921806E-07  -7.17372428111868E-07  -1.72230105710334E-13
      4.49881194710732E-10
      8.00000000000000E-01   8.00000000000000E-01   0.00000000000000E+00  -3.19321907537395E-12   6.12839053710901E-07
     -3.49300358675941E-10   6.12486560133150E-07   2.34355887522476E-13   0.00000000000000E+00   0.00000000000000E+00
      0.00000000000000E+00  -1.31311251740147E-11  -1.97157549817955E-16   8.94483808513385E-08   8.94352495290070E-08
     -6.21081508659210E-14  -4.50000000000000E+01  -4.50000000000000E+01   0.00000000000000E+00  -3.74488164173426E-07
     -6.26056419947183E-15  -3.27433639228163E-07  -7.01921809662154E-07  -1.72247736656555E-13
      5.19157376587391E-10
      8.00000000000000E-01   8.00000000000000E-01   0.00000000000000E+00  -2.47688078528300E-12   6.07664856395802E-07
     -2.17986686595706E-10   6.07444392828421E-07   2.34375676264600E-13   0.00000000000000E+00   0.00000000000000E+00
      0.00000000000000E+00  -1.41662731157512E-11  -1.97157560211810E-16   7.13987295965428E-08   7.13845631262695E-08
     -6.21027326104301E-14  -4.50000000000000E+01  -4.50000000000000E+01   0.00000000000000E+00  -3.53288276059129E-07
     -6.26113782932125E-15  -3.25540673634423E-07  -6.78828955954690E-07  -1.72272943654170E-13
      5.71114512994885E-10
      8.00000000000000E-01   8.00000000000000E-01   0.00000000000000E+00  -1.91033510549032E-12   6.04787957209766E-07
     -1.55615291845303E-10   6.04630431582816E-07   2.34390403194282E-13   0.00000000000000E+00   0.00000000000000E+00
      0.00000000000000E+00  -1.49203552699663E-11  -1.97157572833372E-16   5.69753501118212E-08   5.69604295593937E-08
     -6.20995083607371E-14  -4.50000000000000E+01  -4.50000000000000E+01   0.00000000000000E+00  -3.37729913251586E-07
     -6.26154631174924E-15  -3.23860941629078E-07  -6.61590861142210E-07  -1.72290894833544E-13
      6.49050217606127E-10
      8.00000000000000E-01   8.00000000000000E-01   0.00000000000000E+00  -1.13118138518189E-12   6.01959703067711E-07
     -9.63294636666945E-11   6.01862242422660E-07   2.34412434661917E-13   0.00000000000000E+00   0.00000000000000E+00
      0.00000000000000E+00  -1.59195728441840E-11  -1.97157600408912E-16   3.40316936788601E-08   3.40157739088583E-08
     -6.20961158555143E-14  -4.50000000000000E+01  -4.50000000000000E+01   0.00000000000000E+00  -3.14733109551434E-07
     -6.26212478627077E-15  -3.21144900517960E-07  -6.35878016331519E-07  -1.72316318806403E-13
      7.07501996064559E-10
      8.00000000000000E-01   8.00000000000000E-01   0.00000000000000E+00  -6.32355897272942E-13   6.00863553225288E-07
     -6.92910587754794E-11   6.00793629810615E-07   2.34428981298219E-13   0.00000000000000E+00   0.00000000000000E+00
      0.00000000000000E+00  -1.65341713329460E-11  -1.97157627997109E-16   1.59315301321152E-08   1.59149957636246E-08
     -6.20947644750042E-14  -4.50000000000000E+01  -4.50000000000000E+01   0.00000000000000E+00  -2.97681388115491E-07
     -6.26253198116527E-15  -3.19027231196216E-07  -6.16708625574239E-07  -1.72334216823214E-13
      7.95179663752206E-10
      8.00000000000000E-01   8.00000000000000E-01   0.00000000000000E+00  -4.53483316556398E-14   6.00515510504945E-07
     -4.43604246445465E-11   6.00471104731969E-07   2.34453957030367E-13   0.00000000000000E+00   0.00000000000000E+00
      0.00000000000000E+00  -1.72328953306014E-11  -1.97157679450475E-16  -1.23189773479487E-08  -1.23362104404370E-08
     -6.20947523846832E-14  -4.50000000000000E+01  -4.50000000000000E+01   0.00000000000000E+00  -2.72332294241135E-07
     -6.26310041470842E-15  -3.15802593787296E-07  -5.88134894291532E-07  -1.72359204645685E-13
      9.26696165283676E-10
      8.00000000000000E-01   8.00000000000000E-01   0.00000000000000E+00   4.54223653872047E-13   6.01946312764946E-07
     -2.56310319635391E-11   6.01921135956636E-07   2.34491986525795E-13   0.00000000000000E+00   0.00000000000000E+00
      0.00000000000000E+00  -1.77567292796507E-11  -1.97157767130326E-16  -5.62438158852415E-08  -5.62615728116789E-08
     -6.20994415645136E-14  -4.50000000000000E+01  -4.50000000000000E+01   0.00000000000000E+00  -2.34719041262338E-07
     -6.26385874306937E-15  -3.10940515618761E-07  -5.45659563144957E-07  -1.72392544961280E-13
      1.02533354143228E-09
      8.00000000000000E-01   8.00000000000000E-01   0.00000000000000E+00   4.97368534383187E-13   6.03717886696318E-07
     -1.88576333671825E-11   6.03699526431486E-07   2.34521060263477E-13   0.00000000000000E+00   0.00000000000000E+00
      0.00000000000000E+00  -1.76982089351061E-11  -1.97157815676475E-16  -8.95896757045871E-08  -8.96073741106801E-08
     -6.21067416543327E-14  -4.50000000000000E+01  -4.50000000000000E+01   0.00000000000000E+00  -2.06788929338847E-07
     -6.26435391967281E-15  -3.07303216717605E-07  -5.14092152320806E-07  -1.72414318609143E-13
      1.17328960565518E-09
      8.00000000000000E-01   8.00000000000000E-01   0.00000000000000E+00  -1.56946331117667E-13   6.05328750600119E-07
     -1.33407461141772E-11   6.05315252907674E-07   2.34565553365000E-13   0.00000000000000E+00   0.00000000000000E+00
      0.00000000000000E+00  -1.66366443822997E-11  -1.97157710336890E-16  -1.38102681715922E-07  -1.38119318557462E-07
     -6.21237105428151E-14  -4.50000000000000E+01  -4.50000000000000E+01   0.00000000000000E+00  -1.65314291774220E-07
     -6.26497980690775E-15  -3.01881636311010E-07  -4.67195934350209E-07  -1.72441842822185E-13
      1.28425665382236E-09
      8.00000000000000E-01   8.00000000000000E-01   0.00000000000000E+00  -1.40704685973961E-12   6.03760082200904E-07
     -1.10124818258285E-11   6.03747662672218E-07   2.34599410198461E-13   0.00000000000000E+00   0.00000000000000E+00
      0.00000000000000E+00  -1.47797775058912E-11  -1.97157256296255E-16  -1.71325229552701E-07  -1.71340009527364E-07
     -6.21409307176878E-14  -4.50000000000000E+01  -4.50000000000000E+01   0.00000000000000E+00  -1.34563105780680E-07
     -6.26535808697782E-15  -2.97844541098818E-07  -4.32407653144856E-07  -1.72458479480773E-13
      1.36748193994775E-09
      8.00000000000000E-01   8.00000000000000E-01   0.00000000000000E+00  -2.91756488911116E-12   5.99587985149559E-07
     -9.75678459060085E-12   5.99575310800079E-07   2.34624831672963E-13   0.00000000000000E+00   0.00000000000000E+00
      0.00000000000000E+00  -1.26049932978893E-11  -1.97156459861288E-16  -1.92989869150986E-07  -1.93002474341441E-07
     -6.21561037497279E-14  -4.50000000000000E+01  -4.50000000000000E+01   0.00000000000000E+00  -1.11739191587557E-07
     -6.26559110836412E-15  -2.94833638605494E-07  -4.06572836458641E-07  -1.72468727923234E-13
      1.49231986913582E-09
      8.00000000000000E-01   8.00000000000000E-01   0.00000000000000E+00  -6.14648286730015E-12   5.85801063698201E-07
     -8.32175085983540E-12   5.85786595464474E-07   2.34662317701414E-13   0.00000000000000E+00   0.00000000000000E+00
      0.00000000000000E+00  -7.93015968634622E-12  -1.97153820488463E-16  -2.17391368089345E-07  -2.17399298446185E-07
     -6.21817480196533E-14  -4.50000000000000E+01  -4.50000000000000E+01   0.00000000000000E+00  -7.80422291795352E-08
     -6.26586036543344E-15  -2.90345061572894E-07  -3.68387297018289E-07  -1.72480569681760E-13
      1.58594831602688E-09
      8.00000000000000E-01   8.00000000000000E-01   0.00000000000000E+00  -9.24900486314352E-12   5.67763156920885E-07
     -7.48007739770971E-12   5.67746427838624E-07   2.34689275698146E-13   0.00000000000000E+00   0.00000000000000E+00
      0.00000000000000E+00  -3.38815662037406E-12  -1.97149978099357E-16  -2.27369954112777E-07  -2.27373342466547E-07
     -6.22025565983465E-14  -4.50000000000000E+01  -4.50000000000000E+01   0.00000000000000E+00  -5.33720382318317E-08
     -6.26600020860923E-15  -2.87001040874244E-07  -3.40373085372076E-07  -1.72486719099798E-13
      1.72639098636346E-09
      8.00000000000000E-01   8.00000000000000E-01   0.00000000000000E+00  -1.44023673758768E-11   5.25761402720096E-07
     -6.45350163777057E-12   5.25740546851082E-07   2.34726128488555E-13   0.00000000000000E+00   0.00000000000000E+00
      0.00000000000000E+00   4.38928995252387E-12  -1.97139017190655E-16  -2.25808349650400E-07  -2.25803960557587E-07
     -6.22344174117843E-14  -4.50000000000000E+01  -4.50000000000000E+01   0.00000000000000E+00  -1.79132164407218E-08
     -6.26611378406789E-15  -2.82023363586661E-07  -2.99936586293496E-07  -1.72491711076772E-13
      1.83172298911590E-09
      8.00000000000000E-01   8.00000000000000E-01   0.00000000000000E+00  -1.80405791866576E-11   4.82308663571588E-07
     -5.81846208015467E-12   4.82284804530321E-07   2.34749679935887E-13   0.00000000000000E+00   0.00000000000000E+00
      0.00000000000000E+00   1.01890626763246E-11  -1.97124796814386E-16  -2.10933797553679E-07  -2.10923608688127E-07
     -6.22574002244698E-14  -4.50000000000000E+01  -4.50000000000000E+01   0.00000000000000E+00   6.96116541152598E-09
     -6.26612680090967E-15  -2.78322354987593E-07  -2.71361195842193E-07  -1.72492279711418E-13
      1.98972099324456E-09
      8.00000000000000E-01   8.00000000000000E-01   0.00000000000000E+00  -2.17562202931948E-11   4.01881424220196E-07
     -5.01855332208761E-12   4.01854649446581E-07   2.34775992785772E-13   0.00000000000000E+00   0.00000000000000E+00
      0.00000000000000E+00   1.69731619881296E-11  -1.97089246046422E-16  -1.69413370567696E-07  -1.69396397602797E-07
     -6.22874882501777E-14  -4.50000000000000E+01  -4.50000000000000E+01   0.00000000000000E+00   4.03707031960787E-08
     -6.26604114724323E-15  -2.72828948773821E-07  -2.32458251843784E-07  -1.72488504535594E-13
      2.10821949634105E-09
      8.00000000000000E-01   8.00000000000000E-01   0.00000000000000E+00  -2.25614649807141E-11   3.34809097576181E-07
     -4.51325095681404E-12   3.34782022860243E-07   2.34787517902835E-13   0.00000000000000E+00   0.00000000000000E+00
      0.00000000000000E+00   1.96393535091876E-11  -1.97048545494497E-16  -1.27767135916237E-07  -1.27747496759776E-07
     -6.23050800905610E-14  -4.50000000000000E+01  -4.50000000000000E+01   0.00000000000000E+00   6.17252828579122E-08
     -6.26590337796834E-15  -2.68759802692475E-07  -2.07034526100467E-07  -1.72482437812274E-13
      2.28596725098579E-09
      8.00000000000000E-01   8.00000000000000E-01   0.00000000000000E+00  -2.04964427478313E-11   2.36711081101891E-07
     -3.87065927436645E-12   2.36686713999869E-07   2.34790983337192E-13   0.00000000000000E+00   0.00000000000000E+00
      0.00000000000000E+00   1.93127637295635E-11  -1.96961458795501E-16  -6.11280052279911E-08  -6.11086926612230E-08
     -6.23218388222238E-14  -4.50000000000000E+01  -4.50000000000000E+01   0.00000000000000E+00   8.71726884016444E-08
     -6.26560141441902E-15  -2.62750703474689E-07  -1.75578021338646E-07  -1.72469144514969E-13
      2.41927806696935E-09
      8.00000000000000E-01   8.00000000000000E-01   0.00000000000000E+00  -1.70936006915999E-11   1.72736991651008E-07
     -3.46233725727722E-12   1.72716435713059E-07   2.34783516038899E-13   0.00000000000000E+00   0.00000000000000E+00
      0.00000000000000E+00   1.64124084353259E-11  -1.96876285050746E-16  -1.56639223530979E-08  -1.56475101415389E-08
     -6.23269541096150E-14  -4.50000000000000E+01  -4.50000000000000E+01   0.00000000000000E+00   1.01257296611707E-07
     -6.26531554718219E-15  -2.58326215917911E-07  -1.57068925571520E-07  -1.72456561929285E-13
      2.61924429094468E-09
      8.00000000000000E-01   8.00000000000000E-01   0.00000000000000E+00  -1.11905597275620E-11   1.00662884271573E-07
     -2.94051278634694E-12   1.00648753199059E-07   2.34759721024364E-13   0.00000000000000E+00   0.00000000000000E+00
      0.00000000000000E+00   1.04109091146044E-11  -1.96725301332071E-16   3.53469067247965E-08   3.53573174371858E-08
     -6.23249206532326E-14  -4.50000000000000E+01  -4.50000000000000E+01   0.00000000000000E+00   1.15821685775702E-07
     -6.26482107448346E-15  -2.51827750147125E-07  -1.36006070636245E-07  -1.72434800371132E-13
      2.76921895892618E-09
      8.00000000000000E-01   8.00000000000000E-01   0.00000000000000E+00  -7.28997963513588E-12   6.53650991987577E-08
     -2.60690827277865E-12   6.53552023108498E-08   2.34734812388461E-13   0.00000000000000E+00   0.00000000000000E+00
      0.00000000000000E+00   6.13841659254221E-12  -1.96603301416292E-16   5.87681438776590E-08   5.87742820976483E-08
     -6.23179303627870E-14  -4.50000000000000E+01  -4.50000000000000E+01   0.00000000000000E+00   1.22919495275102E-07
     -6.26441387926317E-15  -2.47048973419186E-07  -1.24129484408498E-07  -1.72416882025675E-13
      2.88169995991231E-09
      8.00000000000000E-01   8.00000000000000E-01   0.00000000000000E+00  -5.05933225838623E-12   4.76132756585814E-08
     -2.38312562008704E-12   4.76058332007029E-08   2.34713674182406E-13   0.00000000000000E+00   0.00000000000000E+00
      0.00000000000000E+00   3.58031902669642E-12  -1.96512831368949E-16   6.90550764098221E-08   6.90586565323359E-08
     -6.23108427517084E-14  -4.50000000000000E+01  -4.50000000000000E+01   0.00000000000000E+00   1.26831789355618E-07
     -6.26409455218253E-15  -2.43496272824562E-07  -1.16664489733039E-07  -1.72402831430696E-13
      2.96606071065190E-09
      8.00000000000000E-01   8.00000000000000E-01   0.00000000000000E+00  -3.76883392899598E-12   3.80687938218616E-08
     -2.22823458884866E-12   3.80627967533438E-08   2.34696952321309E-13   0.00000000000000E+00   0.00000000000000E+00
      0.00000000000000E+00   2.08708927660337E-12  -1.96447806501600E-16   7.35454042298240E-08   7.35474911226528E-08
     -6.23049226772747E-14  -4.50000000000000E+01  -4.50000000000000E+01   0.00000000000000E+00   1.29221301452043E-07
     -6.26384904597587E-15  -2.40831583064190E-07  -1.11610287875997E-07  -1.72392029644033E-13
      3.09260183676129E-09
      8.00000000000000E-01   8.00000000000000E-01   0.00000000000000E+00  -2.37822217752278E-12   2.81144885083935E-08
     -2.01439917319436E-12   2.81100958870428E-08   2.34671060833586E-13   0.00000000000000E+00   0.00000000000000E+00
      0.00000000000000E+00   4.52335297955599E-13  -1.96357345595665E-16   7.64905534556372E-08   7.64910055945778E-08
     -6.22955742165192E-14  -4.50000000000000E+01  -4.50000000000000E+01   0.00000000000000E+00   1.32189492675584E-07
     -6.26347302839854E-15  -2.36790587893732E-07  -1.04601101481621E-07  -1.72375486617066E-13
      3.28241352592538E-09
      8.00000000000000E-01   8.00000000000000E-01   0.00000000000000E+00  -1.18807050482061E-12   1.95006720888271E-08
     -1.73051444411602E-12   1.94977535038782E-08   2.34631449754547E-13   0.00000000000000E+00   0.00000000000000E+00
      0.00000000000000E+00  -9.62514353567405E-13  -1.96241030241227E-16   7.53673458420477E-08   7.53663831314531E-08
     -6.22813868893788E-14  -4.50000000000000E+01  -4.50000000000000E+01   0.00000000000000E+00   1.35598064954760E-07
     -6.26289510611269E-15  -2.30462195327196E-07  -9.48641366353311E-08  -1.72350062865168E-13
      3.42477229279844E-09
      8.00000000000000E-01   8.00000000000000E-01   0.00000000000000E+00  -7.47849412870715E-13   1.59317252488109E-08
     -1.54338953295879E-12   1.59294340098650E-08   2.34601723569389E-13   0.00000000000000E+00   0.00000000000000E+00
      0.00000000000000E+00  -1.48241048072222E-12  -1.96169796888208E-16   7.19898422894889E-08   7.19883596828384E-08
     -6.22710974229050E-14  -4.50000000000000E+01  -4.50000000000000E+01   0.00000000000000E+00   1.37411995552919E-07
     -6.26245324275873E-15  -2.25329782983169E-07  -8.79177936927035E-08  -1.72330626146483E-13
      3.63831044310804E-09
      8.00000000000000E-01   8.00000000000000E-01   0.00000000000000E+00  -4.37174116708447E-13   1.26551101607376E-08
     -1.29855771896026E-12   1.26533744289019E-08   2.34557886824340E-13   0.00000000000000E+00   0.00000000000000E+00
      0.00000000000000E+00  -1.81796226061097E-12  -1.96086253239348E-16   6.51891492120909E-08   6.51873310537440E-08
     -6.22567616422596E-14  -4.50000000000000E+01  -4.50000000000000E+01   0.00000000000000E+00   1.38729905247282E-07
     -6.26178253348682E-15  -2.16570604468145E-07  -7.78407054826460E-08  -1.72301125182080E-13
      3.79846405584023E-09
      8.00000000000000E-01   8.00000000000000E-01   0.00000000000000E+00  -3.39379187783914E-13   1.10125315560689E-08
     -1.14004627520298E-12   1.10110521306059E-08   2.34525951275606E-13   0.00000000000000E+00   0.00000000000000E+00
      0.00000000000000E+00  -1.88023118522835E-12  -1.96039031736244E-16   5.95198170552326E-08   5.95179366280083E-08
     -6.22470223373878E-14  -4.50000000000000E+01  -4.50000000000000E+01   0.00000000000000E+00   1.38340239864780E-07
     -6.26127786202802E-15  -2.08869222362116E-07  -7.05289887586145E-08  -1.72278928938218E-13
      4.03869447493853E-09
      8.00000000000000E-01   8.00000000000000E-01   0.00000000000000E+00  -2.67566598391743E-13   9.08192078243883E-09
     -9.36792098535534E-13   9.08071642374190E-09   2.34480198068647E-13   0.00000000000000E+00   0.00000000000000E+00
      0.00000000000000E+00  -1.84441447368338E-12  -1.95986842340111E-16   5.09557656334324E-08   5.09539210229718E-08
     -6.22341350415672E-14  -4.50000000000000E+01  -4.50000000000000E+01   0.00000000000000E+00   1.34970098829009E-07
     -6.26053054630204E-15  -1.95004730015192E-07  -6.00346374467138E-08  -1.72246063027080E-13
      4.21886728926225E-09
      8.00000000000000E-01   8.00000000000000E-01   0.00000000000000E+00  -2.36686266130797E-13   7.87108479351444E-09
     -8.08104777878974E-13   7.87004000247043E-09   2.34447979703062E-13   0.00000000000000E+00   0.00000000000000E+00
      0.00000000000000E+00  -1.75594361487620E-12  -1.95959101305607E-16   4.47600889065207E-08   4.47583327669468E-08
     -6.22258050098600E-14  -4.50000000000000E+01  -4.50000000000000E+01   0.00000000000000E+00   1.30017828975217E-07
     -6.25998732995215E-15  -1.82646195484647E-07  -5.26283727694171E-08  -1.72222174693203E-13
      4.48912651074783E-09
      8.00000000000000E-01   8.00000000000000E-01   0.00000000000000E+00  -1.99789497641553E-13   6.29866810776468E-09
     -6.46832248445616E-13   6.29782148601860E-09   2.34403828433891E-13   0.00000000000000E+00   0.00000000000000E+00