DF-ISE text

Info {
  version   = 1.0
  type      = xyplot
  datasets  = [
    "time"
    "Ntop OuterVoltage" "Ntop InnerVoltage" "Ntop QuasiFermiPotential" "Ntop DisplacementCurrent" "Ntop eCurrent"
    "Ntop hCurrent" "Ntop TotalCurrent" "Ntop Charge" "Ptop OuterVoltage" "Ptop InnerVoltage"
    "Ptop QuasiFermiPotential" "Ptop DisplacementCurrent" "Ptop eCurrent" "Ptop hCurrent" "Ptop TotalCurrent"
    "Ptop Charge" "Pbot OuterVoltage" "Pbot InnerVoltage" "Pbot QuasiFermiPotential" "Pbot DisplacementCurrent"
    "Pbot eCurrent" "Pbot hCurrent" "Pbot TotalCurrent" "Pbot Charge" ]
  functions = [
    Time
    OuterVoltage InnerVoltage QuasiFermiPotential DisplacementCurrent eCurrent
    hCurrent TotalCurrent Charge OuterVoltage InnerVoltage
    QuasiFermiPotential DisplacementCurrent eCurrent hCurrent TotalCurrent
    Charge OuterVoltage InnerVoltage QuasiFermiPotential DisplacementCurrent
    eCurrent hCurrent TotalCurrent Charge ]
}

Data {
      5.00000000000000E-13
      8.00000000000000E-01   8.00000000000000E-01   0.00000000000000E+00   4.94273311708030E-15   1.84816482043956E-11
     -1.75921798856561E-11   8.94411051856537E-13   1.71121639905598E-13   0.00000000000000E+00   0.00000000000000E+00
      0.00000000000000E+00  -1.05279980097757E-13  -1.96738758268943E-16   1.63163130569345E-07   1.63163025092627E-07
     -4.72080767802874E-14  -1.70000000000000E+01  -1.70000000000000E+01   0.00000000000000E+00  -8.86604943890534E-13
      3.50934734759322E-11  -1.63198126372211E-07  -1.63163919503678E-07  -1.23913563125311E-13
      1.25000000000000E-12
      8.00000000000000E-01   8.00000000000000E-01   0.00000000000000E+00   2.75835345435001E-13   8.56125845134775E-11
     -8.11756154214243E-11   4.71280443748820E-12   1.71121639906850E-13   0.00000000000000E+00   0.00000000000000E+00
      0.00000000000000E+00   3.05249508212686E-14  -1.96738758265530E-16   1.63164821211264E-07   1.63164851539476E-07
     -4.72080767793694E-14  -1.70000000000000E+01  -1.70000000000000E+01   0.00000000000000E+00  -5.17810857330262E-12
      1.61914528172622E-10  -1.63326300763512E-07  -1.63169564343913E-07  -1.23913563127480E-13
      2.37500000000000E-12
      8.00000000000000E-01   8.00000000000000E-01   0.00000000000000E+00   2.16796969486793E-12   7.19271520662295E-10
     -6.71654940014072E-10   4.97845503430908E-11   1.71121639925287E-13   0.00000000000000E+00   0.00000000000000E+00
      0.00000000000000E+00   1.59577320084196E-12  -1.96738758224343E-16   1.63185203254753E-07   1.63186798831215E-07
     -4.72080767655793E-14  -1.70000000000000E+01  -1.70000000000000E+01   0.00000000000000E+00  -5.61840979653167E-11
      1.33930269575757E-09  -1.64519701979350E-07  -1.63236583381558E-07  -1.23913563159707E-13
      4.06250000000000E-12
      8.00000000000000E-01   8.00000000000000E-01   0.00000000000000E+00   3.28517753171514E-11   1.11999228255838E-08
     -1.01891606826458E-08   1.04361391825520E-09   1.71121640473279E-13   0.00000000000000E+00   0.00000000000000E+00
      0.00000000000000E+00   2.35450774972281E-11  -1.96738757273989E-16   1.63654998522777E-07   1.63678543403535E-07
     -4.72080763475690E-14  -1.70000000000000E+01  -1.70000000000000E+01   0.00000000000000E+00  -1.18748419198947E-09
      2.03067850178401E-08  -1.83841458147640E-07  -1.64722157321790E-07  -1.23913564125710E-13
      6.59375000000000E-12
      8.00000000000000E-01   8.00000000000000E-01   0.00000000000000E+00   6.57843574768507E-10   2.33839391350063E-07
     -2.03909579716416E-07   3.05876552084158E-08   1.71121664101509E-13   0.00000000000000E+00   0.00000000000000E+00
      0.00000000000000E+00   4.74066130909228E-10  -1.96738728236439E-16   1.77991227282451E-07   1.78465293216621E-07
     -4.72080580359804E-14  -1.70000000000000E+01  -1.70000000000000E+01   0.00000000000000E+00  -3.49634358941960E-08
      4.06028823806448E-07  -5.80118336337289E-07  -2.09052948425037E-07  -1.23913606065528E-13
      1.03906250000000E-11
      8.00000000000000E-01   8.00000000000000E-01   0.00000000000000E+00   5.52733333976031E-09   2.10702231444465E-06
     -1.69718629039269E-06   4.15363357391718E-07   1.71122171516721E-13   0.00000000000000E+00   0.00000000000000E+00
      0.00000000000000E+00   3.88381912314757E-09  -1.96738347821304E-16   3.65529692001475E-07   3.69413510927884E-07
     -4.72076660115040E-14  -1.70000000000000E+01  -1.70000000000000E+01   0.00000000000000E+00  -4.73528023668635E-07
      3.37368717786021E-06  -3.68493602251118E-06  -7.84776868319604E-07  -1.23914505505218E-13
      1.60859375000000E-11
      8.00000000000000E-01   8.00000000000000E-01   0.00000000000000E+00   3.25265291721170E-09   1.93554484738984E-06
     -9.08199459479487E-07   1.03059804082756E-06   1.71124876125020E-13   0.00000000000000E+00   0.00000000000000E+00
      0.00000000000000E+00   1.63200528347750E-09  -1.96737799276552E-16   6.34590529792146E-07   6.36222534878885E-07
     -4.72056906795613E-14  -1.70000000000000E+01  -1.70000000000000E+01   0.00000000000000E+00  -1.14162824989541E-06
      1.77770123534977E-06  -2.30289356116080E-06  -1.66682057570645E-06  -1.23919185445459E-13
      2.46289062500000E-11
      8.00000000000000E-01   8.00000000000000E-01   0.00000000000000E+00   3.87319288978815E-10   1.37064050574088E-06
     -2.26884738360218E-08   1.34833935119383E-06   1.71131633645242E-13   0.00000000000000E+00   0.00000000000000E+00
      0.00000000000000E+00  -4.63417192336464E-10  -1.96737697420446E-16   6.82455977515881E-07   6.81992560126806E-07
     -4.72013807602575E-14  -1.70000000000000E+01  -1.70000000000000E+01   0.00000000000000E+00  -1.40205022107065E-06
      3.29405853026756E-09  -6.31575748780263E-07  -2.03033191132064E-06  -1.23930252884984E-13
      3.74433593750000E-11
      8.00000000000000E-01   8.00000000000000E-01   0.00000000000000E+00   2.48968478136820E-10   1.46010777573046E-06
     -1.91379272869484E-08   1.44121881692164E-06   1.71143434443500E-13   0.00000000000000E+00   0.00000000000000E+00
      0.00000000000000E+00  -3.21322531727196E-10  -1.96737879603149E-16   5.89706454385544E-07   5.89385131657079E-07
     -4.71953838842265E-14  -1.70000000000000E+01  -1.70000000000000E+01   0.00000000000000E+00  -1.37515762306071E-06
     -5.01713688908089E-15  -6.55446320500880E-07  -2.03060394857873E-06  -1.23948050559274E-13
      5.66650390625000E-11
      8.00000000000000E-01   8.00000000000000E-01   0.00000000000000E+00   1.54691895094455E-10   1.54341305281699E-06
     -1.65836678551257E-08   1.52698407685696E-06   1.71162313172272E-13   0.00000000000000E+00   0.00000000000000E+00
      0.00000000000000E+00  -2.25537866030176E-10  -1.96738071285381E-16   4.90677995739009E-07   4.90452457676241E-07
     -4.71882643356311E-14  -1.70000000000000E+01  -1.70000000000000E+01   0.00000000000000E+00  -1.32992364825627E-06
     -5.01824387947462E-15  -6.87512881258686E-07  -2.01743653453320E-06  -1.23974048836641E-13
      8.54975585937500E-11
      8.00000000000000E-01   8.00000000000000E-01   0.00000000000000E+00   8.23617801449490E-11   1.61162847234729E-06
     -1.33693495172988E-08   1.59834148461013E-06   1.71191948926118E-13   0.00000000000000E+00   0.00000000000000E+00
      0.00000000000000E+00  -1.50724695354859E-10  -1.96738258857671E-16   3.88988145357418E-07   3.88837420465324E-07
     -4.71805184775369E-14  -1.70000000000000E+01  -1.70000000000000E+01   0.00000000000000E+00  -1.26337229357306E-06
     -5.01937024467880E-15  -7.23806606483030E-07  -1.98717890507546E-06  -1.24011430448581E-13
      1.28746337890625E-10
      8.00000000000000E-01   8.00000000000000E-01   0.00000000000000E+00   3.18972121028500E-11   1.65408466907931E-06
     -9.66806318887231E-09   1.64444850310254E-06   1.71237341280360E-13   0.00000000000000E+00   0.00000000000000E+00
      0.00000000000000E+00  -9.73664338335732E-11  -1.96738413567040E-16   2.88430736367012E-07   2.88333369736440E-07
     -4.71732872084435E-14  -1.70000000000000E+01  -1.70000000000000E+01   0.00000000000000E+00  -1.17100249442730E-06
     -5.02090793120039E-15  -7.61779373390775E-07  -1.93278187283898E-06  -1.24064054071916E-13
      1.93619506835937E-10
      8.00000000000000E-01   8.00000000000000E-01   0.00000000000000E+00   1.10386569860174E-12   1.66144452178466E-06
     -5.93590417426456E-09   1.65550972147609E-06   1.71304808706561E-13   0.00000000000000E+00   0.00000000000000E+00
      0.00000000000000E+00  -6.50643041274226E-11  -1.96738486989008E-16   1.89895293393411E-07   1.89830228892545E-07
     -4.71687817463663E-14  -1.70000000000000E+01  -1.70000000000000E+01   0.00000000000000E+00  -1.04940686449738E-06
     -5.02299719956098E-15  -7.95933080848264E-07  -1.84533995036864E-06  -1.24136026960196E-13
      2.42274383544922E-10
      8.00000000000000E-01   8.00000000000000E-01   0.00000000000000E+00  -7.87285869669262E-12   1.64875441273003E-06
     -4.13262767040024E-09   1.64461391220093E-06   1.71354071617824E-13   0.00000000000000E+00   0.00000000000000E+00
      0.00000000000000E+00  -5.63563062006115E-11  -1.96738486373808E-16   1.33919498871498E-07   1.33863142368559E-07
     -4.71689671765854E-14  -1.70000000000000E+01  -1.70000000000000E+01   0.00000000000000E+00  -9.68542281239417E-07
     -5.02442185321714E-15  -8.09934768305653E-07  -1.77847705456949E-06  -1.24185104441239E-13
      3.15256698608398E-10
      8.00000000000000E-01   8.00000000000000E-01   0.00000000000000E+00  -1.38746821087940E-11   1.62064770546404E-06
     -2.40412833006861E-09   1.61822970245186E-06   1.71425448798807E-13   0.00000000000000E+00   0.00000000000000E+00
      0.00000000000000E+00  -5.11563522696699E-11  -1.96738528111240E-16   5.95146509214933E-08   5.94634943724851E-08
     -4.71737410896447E-14  -1.70000000000000E+01  -1.70000000000000E+01   0.00000000000000E+00  -8.57451157832099E-07
     -5.02635679636682E-15  -8.20242033965889E-07  -1.67769319682434E-06  -1.24251707709162E-13
      3.69993434906006E-10
      8.00000000000000E-01   8.00000000000000E-01   0.00000000000000E+00  -1.61056434032418E-11   1.59646764154159E-06
     -1.61481075470604E-09   1.59483672514348E-06   1.71477062388103E-13   0.00000000000000E+00   0.00000000000000E+00
      0.00000000000000E+00  -4.91977058755927E-11  -1.96738672238738E-16   7.28189119301204E-09   7.23269329039778E-09
     -4.71805643023184E-14  -1.70000000000000E+01  -1.70000000000000E+01   0.00000000000000E+00  -7.79402292325282E-07
     -5.02765890977397E-15  -8.22667121080931E-07  -1.60206941843387E-06  -1.24296498085786E-13
      4.11045987129211E-10
      8.00000000000000E-01   8.00000000000000E-01   0.00000000000000E+00  -1.76069823860048E-11   1.57722329959038E-06
     -1.20436024085623E-09   1.57600133236713E-06   1.71514737920817E-13   0.00000000000000E+00   0.00000000000000E+00
      0.00000000000000E+00  -4.75647487611558E-11  -1.96738881288225E-16  -3.04751252097309E-08  -3.05226901552309E-08
     -4.71874078632051E-14  -1.70000000000000E+01  -1.70000000000000E+01   0.00000000000000E+00  -7.22785290172653E-07
     -5.02855551965494E-15  -8.22693347010691E-07  -1.54547864221190E-06  -1.24327330057611E-13
      4.72624815464020E-10
      8.00000000000000E-01   8.00000000000000E-01   0.00000000000000E+00  -2.04669345155262E-11   1.54582013352118E-06
     -7.80599678075896E-10   1.54501906690859E-06   1.71569589606136E-13   0.00000000000000E+00   0.00000000000000E+00
      0.00000000000000E+00  -4.38644421352579E-11  -1.96739394047108E-16  -8.39974399856878E-08  -8.40413046245625E-08
     -4.72003047228234E-14  -1.70000000000000E+01  -1.70000000000000E+01   0.00000000000000E+00  -6.40046202204758E-07
     -5.02977585621177E-15  -8.20931555049487E-07  -1.46097776228402E-06  -1.24369284883312E-13
      5.18808936715126E-10
      8.00000000000000E-01   8.00000000000000E-01   0.00000000000000E+00  -2.34463240092521E-11   1.51926650002558E-06
     -5.69184682915703E-10   1.51867386901865E-06   1.71609357147591E-13   0.00000000000000E+00   0.00000000000000E+00
      0.00000000000000E+00  -3.96989301145973E-11  -1.96739946649224E-16  -1.20614418223891E-07  -1.20654117350746E-07
     -4.72119155538154E-14  -1.70000000000000E+01  -1.70000000000000E+01   0.00000000000000E+00  -5.79365696247890E-07
     -5.03059500462635E-15  -8.18654050389425E-07  -1.39801975166791E-06  -1.24397441593776E-13
      5.88085118591785E-10
      8.00000000000000E-01   8.00000000000000E-01   0.00000000000000E+00  -2.96378705875975E-11   1.47188894719537E-06
     -3.59031616366120E-10   1.47150027770841E-06   1.71666504010558E-13   0.00000000000000E+00   0.00000000000000E+00
      0.00000000000000E+00  -3.07872340429819E-11  -1.96741037286094E-16  -1.66957873918480E-07  -1.66988661349264E-07
     -4.72320222350300E-14  -1.70000000000000E+01  -1.70000000000000E+01   0.00000000000000E+00  -4.90161227524452E-07
     -5.03167276918883E-15  -8.14350383803025E-07  -1.30451161635915E-06  -1.24434481775529E-13
      6.91999391406774E-10
      8.00000000000000E-01   8.00000000000000E-01   0.00000000000000E+00  -4.23148930259420E-11   1.37671018389904E-06
     -1.86554013788306E-10   1.37648131499223E-06   1.71745165597130E-13   0.00000000000000E+00   0.00000000000000E+00
      0.00000000000000E+00  -1.19975899246843E-11  -1.96743073104381E-16  -2.09173516999209E-07  -2.09185514785877E-07
     -4.72665125432576E-14  -1.70000000000000E+01  -1.70000000000000E+01   0.00000000000000E+00  -3.60440104364336E-07
     -5.03295838924705E-15  -8.06855690809057E-07  -1.16729580020635E-06  -1.24478653053873E-13
      7.69935096018016E-10
      8.00000000000000E-01   8.00000000000000E-01   0.00000000000000E+00  -5.30897604879885E-11   1.28231763348025E-06
     -1.20055568036369E-10   1.28214448815172E-06   1.71797053343397E-13   0.00000000000000E+00   0.00000000000000E+00
      0.00000000000000E+00   4.65693790674206E-12  -1.96744539982375E-16  -2.14257563299931E-07  -2.14252906558769E-07
     -4.72939634476581E-14  -1.70000000000000E+01  -1.70000000000000E+01   0.00000000000000E+00  -2.67000647476732E-07
     -5.03366998797123E-15  -8.00890929082555E-07  -1.06789158159296E-06  -1.24503089895739E-13
      8.86838652934879E-10
      8.00000000000000E-01   8.00000000000000E-01   0.00000000000000E+00  -6.67719850443941E-11   1.10456168471050E-06
     -6.67609121071465E-11   1.10442815181335E-06   1.71859829122635E-13   0.00000000000000E+00   0.00000000000000E+00
      0.00000000000000E+00   2.81595541867412E-11  -1.96744664246795E-16  -1.76749260804219E-07  -1.76721101446777E-07
     -4.73332596967354E-14  -1.70000000000000E+01  -1.70000000000000E+01   0.00000000000000E+00  -1.35791350672732E-07
     -5.03435448291091E-15  -7.91915694659493E-07  -9.27707050366579E-07  -1.24526569425899E-13
      9.74516320622526E-10
      8.00000000000000E-01   8.00000000000000E-01   0.00000000000000E+00  -7.23203590808904E-11   9.50594722920018E-07
     -4.63459967132006E-11   9.50476056564224E-07   1.71893020007739E-13   0.00000000000000E+00   0.00000000000000E+00
      0.00000000000000E+00   4.09879787394414E-11  -1.96740370460230E-16  -1.18410268649638E-07  -1.18369280867639E-07
     -4.73584820328055E-14  -1.70000000000000E+01  -1.70000000000000E+01   0.00000000000000E+00  -4.67939139074717E-08
     -5.03458772481825E-15  -7.85312856754528E-07  -8.32106775696587E-07  -1.24534537974934E-13
      1.10603282215400E-09
      8.00000000000000E-01   8.00000000000000E-01   0.00000000000000E+00  -7.06075664603242E-11   7.13301167169242E-07
     -2.95316385878101E-11   7.13201027964194E-07   1.71918426336667E-13   0.00000000000000E+00   0.00000000000000E+00
      0.00000000000000E+00   4.85132824162721E-11  -1.96716355923897E-16  -4.76369904007889E-09  -4.71518595437898E-09
     -4.73853738833123E-14  -1.70000000000000E+01  -1.70000000000000E+01   0.00000000000000E+00   6.72273003164890E-08
     -5.03454718096375E-15  -7.75713137291757E-07  -7.08485842009815E-07  -1.24533052453355E-13
      1.20467019830260E-09
      8.00000000000000E-01   8.00000000000000E-01   0.00000000000000E+00  -6.25286065435209E-11   5.48842059111868E-07
     -2.26504110273430E-11   5.48756880094298E-07   1.71918874971027E-13   0.00000000000000E+00   0.00000000000000E+00
      0.00000000000000E+00   4.55068040378512E-11  -1.96674368016713E-16   8.39005066732879E-08   8.39460132806514E-08
     -4.73959057294036E-14  -1.70000000000000E+01  -1.70000000000000E+01   0.00000000000000E+00   1.35972999053718E-07
     -5.03425622892170E-15  -7.68675887394412E-07  -6.32702893374949E-07  -1.24522969241623E-13
      1.35262626252550E-09
      8.00000000000000E-01   8.00000000000000E-01   0.00000000000000E+00  -4.53179457354947E-11   3.49946892679024E-07
     -1.64185574573036E-11   3.49885156175831E-07   1.71894488088995E-13   0.00000000000000E+00   0.00000000000000E+00
      0.00000000000000E+00   3.29526202974002E-11  -1.96550374565723E-16   1.94790361292962E-07   1.94823313716709E-07
     -4.73975330312598E-14  -1.70000000000000E+01  -1.70000000000000E+01   0.00000000000000E+00   2.13199337215924E-07
     -5.03350349535163E-15  -7.57907802074960E-07  -5.44708469892540E-07  -1.24496955057734E-13
      1.46359331069268E-09
      8.00000000000000E-01   8.00000000000000E-01   0.00000000000000E+00  -3.23482889182648E-11   2.43307783036695E-07
     -1.35080142680702E-11   2.43261926733508E-07   1.71861036571292E-13   0.00000000000000E+00   0.00000000000000E+00
      0.00000000000000E+00   2.17065549769272E-11  -1.96400105494519E-16   2.52267301835134E-07   2.52289008193711E-07
     -4.73900410214241E-14  -1.70000000000000E+01  -1.70000000000000E+01   0.00000000000000E+00   2.53570772822372E-07
     -5.03275163196702E-15  -7.49121702716839E-07  -4.95550934927219E-07  -1.24470995549868E-13
      1.63004388294345E-09
      8.00000000000000E-01   8.00000000000000E-01   0.00000000000000E+00  -1.75164112458479E-11   1.41767230021015E-07
     -1.05101452708548E-11   1.41739203464498E-07   1.71796079089961E-13   0.00000000000000E+00   0.00000000000000E+00
      0.00000000000000E+00   7.96280821558318E-12  -1.96088622240936E-16   2.98324241768531E-07   2.98332204380658E-07
     -4.73707393080600E-14  -1.70000000000000E+01  -1.70000000000000E+01   0.00000000000000E+00   2.93196916818740E-07
     -5.03142877805236E-15  -7.33268319632468E-07  -4.40071407845157E-07  -1.24425339781901E-13
      1.75488181213153E-09
      8.00000000000000E-01   8.00000000000000E-01   0.00000000000000E+00  -1.05440177291138E-11   9.88399796970784E-08
     -8.90389795409840E-12   9.88205317813952E-08   1.71740854815902E-13   0.00000000000000E+00   0.00000000000000E+00
      0.00000000000000E+00   1.29621950107351E-12  -1.95808434235778E-16   3.08917621848779E-07   3.08918917872472E-07
     -4.73532391881192E-14  -1.70000000000000E+01  -1.70000000000000E+01   0.00000000000000E+00   3.10415650688787E-07
     -5.03033549776262E-15  -7.18155095312320E-07  -4.07739449653868E-07  -1.24387615627783E-13
      1.94213870591364E-09
      8.00000000000000E-01   8.00000000000000E-01   0.00000000000000E+00  -4.96051178241779E-12   6.35840138315061E-08
     -7.06530908683489E-12   6.35719880106368E-08   1.71655127275969E-13   0.00000000000000E+00   0.00000000000000E+00
      0.00000000000000E+00  -3.90619659877513E-12  -1.95373108727209E-16   3.03499977704763E-07   3.03496071312791E-07
     -4.73267857844419E-14  -1.70000000000000E+01  -1.70000000000000E+01   0.00000000000000E+00   3.21273329894889E-07
     -5.02861742815485E-15  -6.88341384189698E-07  -3.67068059323427E-07  -1.24328341491527E-13
      2.08258137625022E-09
      8.00000000000000E-01   8.00000000000000E-01   0.00000000000000E+00  -3.08744627814670E-12   4.95096358970433E-08
     -5.98931550468199E-12   4.95005591352604E-08   1.71591705553436E-13   0.00000000000000E+00   0.00000000000000E+00
      0.00000000000000E+00  -5.37550955510723E-12  -1.95068714539303E-16   2.90914890750084E-07   2.90909515045460E-07
     -4.73083935845593E-14  -1.70000000000000E+01  -1.70000000000000E+01   0.00000000000000E+00   3.19294772643985E-07
     -5.02731201877593E-15  -6.59704841797394E-07  -3.40410074180722E-07  -1.24283311968877E-13
      2.29324538175510E-09
      8.00000000000000E-01   8.00000000000000E-01   0.00000000000000E+00  -1.82662883636207E-12   3.64856959976675E-08
     -4.69607680916023E-12   3.64791732920220E-08   1.71502223815971E-13   0.00000000000000E+00   0.00000000000000E+00
      0.00000000000000E+00  -5.78645115904480E-12  -1.94685562854908E-16   2.68282139516745E-07   2.68276352870901E-07
     -4.72845414208967E-14  -1.70000000000000E+01  -1.70000000000000E+01   0.00000000000000E+00   3.02484593799536E-07
     -5.02540894086562E-15  -6.07240114937050E-07  -3.04755526162923E-07  -1.24217682395074E-13
      2.45124338588376E-09
      8.00000000000000E-01   8.00000000000000E-01   0.00000000000000E+00  -1.40226216786691E-12   2.98636253949951E-08
     -3.91953052875444E-12   2.98583036022984E-08   1.71441301410555E-13   0.00000000000000E+00   0.00000000000000E+00
      0.00000000000000E+00  -5.42298042205528E-12  -1.94459706763571E-16   2.51374937806835E-07   2.51369514631953E-07
     -4.72697455841368E-14  -1.70000000000000E+01  -1.70000000000000E+01   0.00000000000000E+00   2.80858176730633E-07
     -5.02407094917924E-15  -5.62085989940814E-07  -2.81227818234252E-07  -1.24171555826419E-13
      2.56974188898025E-09
      8.00000000000000E-01   8.00000000000000E-01   0.00000000000000E+00  -1.20166182982439E-12   2.58157117255951E-08
     -3.42290652112638E-12   2.58110871572441E-08   1.71399750015753E-13   0.00000000000000E+00   0.00000000000000E+00
      0.00000000000000E+00  -5.00038585665302E-12  -1.94321412047980E-16   2.39601804467692E-07   2.39596803887514E-07
     -4.72603072118521E-14  -1.70000000000000E+01  -1.70000000000000E+01   0.00000000000000E+00   2.60927629427155E-07
     -5.02313917637221E-15  -5.26335515448774E-07  -2.65407891044759E-07  -1.24139442803901E-13
      2.74748964362499E-09
      8.00000000000000E-01   8.00000000000000E-01   0.00000000000000E+00  -9.68251101238799E-13   2.07539974825696E-08
     -2.79154281672827E-12   2.07502376886516E-08   1.71344546223735E-13   0.00000000000000E+00   0.00000000000000E+00
      0.00000000000000E+00  -4.27731026343399E-12  -1.94154907566928E-16   2.23884828102232E-07   2.23880550597814E-07
     -4.72485352735404E-14  -1.70000000000000E+01  -1.70000000000000E+01   0.00000000000000E+00   2.27529170854489E-07
     -5.02187856631760E-15  -4.72159954119075E-07  -2.44630788286465E-07  -1.24096010950196E-13
      2.88080045960855E-09
      8.00000000000000E-01   8.00000000000000E-01   0.00000000000000E+00  -8.28451548039505E-13   1.75997547306947E-08
     -2.39470232122482E-12   1.75965315768255E-08   1.71308797993877E-13   0.00000000000000E+00   0.00000000000000E+00
      0.00000000000000E+00  -3.72116478702898E-12  -1.94056840270226E-16   2.13726585245793E-07   2.13722863886949E-07
     -4.72413720214421E-14  -1.70000000000000E+01  -1.70000000000000E+01   0.00000000000000E+00   2.01309902745380E-07
     -5.02104860190295E-15  -4.32629293188105E-07  -2.31319395463773E-07  -1.24067425972435E-13
      3.08076668358388E-09
      8.00000000000000E-01   8.00000000000000E-01   0.00000000000000E+00  -6.53842484302818E-13   1.36973861012897E-08
     -1.90037908675208E-12   1.36948318797186E-08   1.71263873313782E-13   0.00000000000000E+00   0.00000000000000E+00
      0.00000000000000E+00  -2.93742019643884E-12  -1.93943672829277E-16   2.01052350393855E-07   2.01049412779715E-07
     -4.72328462838099E-14  -1.70000000000000E+01  -1.70000000000000E+01   0.00000000000000E+00   1.62961387127601E-07
     -5.01999140110568E-15  -3.77705626767044E-07  -2.14744244659434E-07  -1.24031027029973E-13
      3.38071601954688E-09
      8.00000000000000E-01   8.00000000000000E-01   0.00000000000000E+00  -4.52110004979761E-13   9.34122964341506E-09
     -1.33947966122512E-12   9.33943805374885E-09   1.71213789963692E-13   0.00000000000000E+00   0.00000000000000E+00
      0.00000000000000E+00  -1.95566637013574E-12  -1.93833044775278E-16   1.87130337061731E-07   1.87128381201528E-07
     -4.72239362381979E-14  -1.70000000000000E+01  -1.70000000000000E+01   0.00000000000000E+00   1.12510419428679E-07
     -5.01879502905518E-15  -3.08978233665161E-07  -1.96467819255277E-07  -1.23989853725495E-13
      3.83064002349138E-09
      8.00000000000000E-01   8.00000000000000E-01   0.00000000000000E+00  -2.52064382871889E-13   5.21501690574075E-09
     -7.86871503322392E-13   5.21397796985455E-09   1.71168180483707E-13   0.00000000000000E+00   0.00000000000000E+00
      0.00000000000000E+00  -9.68530506916768E-13  -1.93760162893804E-16   1.74794507509864E-07   1.74793538785597E-07
     -4.72163094131961E-14  -1.70000000000000E+01  -1.70000000000000E+01   0.00000000000000E+00   5.85975424085914E-08
     -5.01769091327064E-15  -2.38605054146353E-07  -1.80007516755452E-07  -1.23951871070510E-13
      4.50552602940813E-09
      8.00000000000000E-01   8.00000000000000E-01   0.00000000000000E+00  -1.00862227795834E-13   2.17442006679678E-09
     -3.47462658733983E-13   2.17397174191025E-09   1.71138230180855E-13   0.00000000000000E+00   0.00000000000000E+00
      0.00000000000000E+00  -2.89035666143440E-13  -1.93775704666189E-16   1.67089697762350E-07   1.67089408532908E-07
     -4.72113892628102E-14  -1.70000000000000E+01  -1.70000000000000E+01   0.00000000000000E+00   1.87861105794348E-08
     -5.01696309559759E-15  -1.88049485837290E-07  -1.69263380274818E-07  -1.23926840918045E-13
      5.51785503828325E-09
      8.00000000000000E-01   8.00000000000000E-01   0.00000000000000E+00  -2.55708500956139E-14   5.97667505387486E-10
     -9.57720005019632E-14   5.97546162536888E-10   1.71125879895068E-13   0.00000000000000E+00   0.00000000000000E+00
      0.00000000000000E+00  -4.76763258026199E-14  -1.93929521361616E-16   1.64171088660451E-07   1.64171040790195E-07
     -4.72090730945768E-14  -1.70000000000000E+01  -1.70000000000000E+01   0.00000000000000E+00   3.13714843685111E-09
     -5.01667116677431E-15  -1.67905730372911E-07  -1.64768586952731E-07  -1.23916806800491E-13
      7.03634855159594E-09
      8.00000000000000E-01   8.00000000000000E-01   0.00000000000000E+00  -3.40779057086342E-15   7.60884085419547E-11
     -1.03045798618298E-14   7.60746961715221E-11   1.71122369151190E-13   0.00000000000000E+00   0.00000000000000E+00
      0.00000000000000E+00  -1.20461932188204E-14  -1.94247784097262E-16   1.63356862766885E-07   1.63356850526444E-07
     -4.72082197228681E-14  -1.70000000000000E+01  -1.70000000000000E+01   0.00000000000000E+00   6.61534045253769E-10
     -5.01659368758321E-15  -1.64094454251276E-07  -1.63432925222616E-07  -1.23914149428322E-13
      8.17521868658045E-09
      8.00000000000000E-01   8.00000000000000E-01   0.00000000000000E+00  -7.86566237704919E-16   1.65722172034679E-11
     -2.29707691012537E-15   1.65691335603201E-11   1.71121782742841E-13   0.00000000000000E+00   0.00000000000000E+00
      0.00000000000000E+00  -2.90505969938250E-15  -1.94489648669042E-16   1.63198941877801E-07   1.63198938778252E-07
     -4.72081002403506E-14  -1.70000000000000E+01  -1.70000000000000E+01   0.00000000000000E+00   1.82428635433537E-10
     -5.01658007906560E-15  -1.63397931530666E-07  -1.63215507911812E-07  -1.23913682502490E-13
      9.88352388905722E-09
      8.00000000000000E-01   8.00000000000000E-01   0.00000000000000E+00  -2.24766426175926E-17   1.10565812542591E-12
     -1.22877928763576E-16   1.10551277085453E-12   1.71121639363288E-13   0.00000000000000E+00   0.00000000000000E+00
      0.00000000000000E+00   1.06830155919096E-16  -1.94814495774962E-16   1.63162645322272E-07   1.63162645234288E-07
     -4.72080757128900E-14  -1.70000000000000E+01  -1.70000000000000E+01   0.00000000000000E+00  -6.06392799275334E-12
     -5.01657662349838E-15  -1.63157681802489E-07  -1.63163750747058E-07  -1.23913563650398E-13
      1.11647527909148E-08
      8.00000000000000E-01   8.00000000000000E-01   0.00000000000000E+00  -8.75945254541728E-18   5.14598564029739E-13
     -4.48507197983071E-18   5.14585319505214E-13   1.71121640327019E-13   0.00000000000000E+00   0.00000000000000E+00
      0.00000000000000E+00   1.00773322415240E-16  -1.95023504458820E-16   1.63163199736380E-07   1.63163199642130E-07
     -4.72080752695395E-14  -1.70000000000000E+01  -1.70000000000000E+01   0.00000000000000E+00   2.14024771637528E-12
     -5.01657666354520E-15  -1.63165849458590E-07  -1.63163714227450E-07  -1.23913565057480E-13
      1.30865961437012E-08
      8.00000000000000E-01   8.00000000000000E-01   0.00000000000000E+00   2.88499965642409E-18   2.62731813069083E-13
      2.02967132191027E-17   2.62754994781959E-13   1.71121638263725E-13   0.00000000000000E+00   0.00000000000000E+00
      0.00000000000000E+00  -3.56331882725132E-17  -1.95285725612909E-16   1.63162560975570E-07   1.63162560744651E-07
     -4.72080751179783E-14  -1.70000000000000E+01  -1.70000000000000E+01   0.00000000000000E+00   7.49021839248183E-14
     -5.01657660777761E-15  -1.63162893385253E-07  -1.63162823499646E-07  -1.23913563145747E-13
      1.59693611728807E-08
      8.00000000000000E-01   8.00000000000000E-01   0.00000000000000E+00  -1.41335447723182E-18   2.12369081079517E-13
      2.07334466375562E-17   2.12388401171677E-13   1.71121638680669E-13   0.00000000000000E+00   0.00000000000000E+00
      0.00000000000000E+00   2.29110814564777E-18  -1.95587498328349E-16   1.63162617906846E-07   1.63162617713549E-07
     -4.72080755072613E-14  -1.70000000000000E+01  -1.70000000000000E+01   0.00000000000000E+00  -2.72265897540229E-14
     -5.01657660862771E-15  -1.63162797858784E-07  -1.63162830101951E-07  -1.23913563173408E-13
      2.02935087166500E-08
      8.00000000000000E-01   8.00000000000000E-01   0.00000000000000E+00  -1.32129464688075E-16   1.66987343513475E-13
      2.07267743095863E-17   1.66875940823096E-13   1.71121639029260E-13   0.00000000000000E+00   0.00000000000000E+00