DF-ISE text

Info {
  version   = 1.0
  type      = xyplot
  datasets  = [
    "time"
    "Ntop OuterVoltage" "Ntop InnerVoltage" "Ntop QuasiFermiPotential" "Ntop DisplacementCurrent" "Ntop eCurrent"
    "Ntop hCurrent" "Ntop TotalCurrent" "Ntop Charge" "Ptop OuterVoltage" "Ptop InnerVoltage"
    "Ptop QuasiFermiPotential" "Ptop DisplacementCurrent" "Ptop eCurrent" "Ptop hCurrent" "Ptop TotalCurrent"
    "Ptop Charge" "Pbot OuterVoltage" "Pbot InnerVoltage" "Pbot QuasiFermiPotential" "Pbot DisplacementCurrent"
    "Pbot eCurrent" "Pbot hCurrent" "Pbot TotalCurrent" "Pbot Charge" ]
  functions = [
    Time
    OuterVoltage InnerVoltage QuasiFermiPotential DisplacementCurrent eCurrent
    hCurrent TotalCurrent Charge OuterVoltage InnerVoltage
    QuasiFermiPotential DisplacementCurrent eCurrent hCurrent TotalCurrent
    Charge OuterVoltage InnerVoltage QuasiFermiPotential DisplacementCurrent
    eCurrent hCurrent TotalCurrent Charge ]
}

Data {
      5.00000000000000E-13
      8.00000000000000E-01   8.00000000000000E-01   0.00000000000000E+00   7.58034794406790E-15   1.83313313278929E-11
     -1.75921798950415E-11   7.46731780795531E-13   1.67014632698075E-13   0.00000000000000E+00   0.00000000000000E+00
      0.00000000000000E+00  -1.00955361084122E-13  -1.97161987554271E-16   6.34818523052401E-11   6.33806997821684E-11
     -7.08437734485550E-14  -1.20000000000000E+01  -1.20000000000000E+01   0.00000000000000E+00  -6.77454027135570E-13
      3.50943494978756E-11  -9.85443270337040E-11  -6.41274315629640E-11  -9.61708592495198E-14
      1.25000000000000E-12
      8.00000000000000E-01   8.00000000000000E-01   0.00000000000000E+00   1.99661137883856E-13   8.45243234538085E-11
     -8.11756154523695E-11   3.54836913932291E-12   1.67014632698947E-13   0.00000000000000E+00   0.00000000000000E+00
      0.00000000000000E+00   6.92251555380186E-15  -1.97161987551211E-16   6.49999775184666E-11   6.50067028720328E-11
     -7.08437734477496E-14  -1.20000000000000E+01  -1.20000000000000E+01   0.00000000000000E+00  -4.00346915797832E-12
      1.61915404196530E-10  -2.26467007049907E-10  -6.85550720113557E-11  -9.61708592511969E-14
      2.37500000000000E-12
      8.00000000000000E-01   8.00000000000000E-01   0.00000000000000E+00   1.54885252110030E-12   7.06722179372131E-10
     -6.71654940362699E-10   3.66160915305324E-11   1.67014632711696E-13   0.00000000000000E+00   0.00000000000000E+00
      0.00000000000000E+00   1.42203606348071E-12  -1.97161987514909E-16   8.29972160704895E-11   8.44190549719827E-11
     -7.08437734355762E-14  -1.20000000000000E+01  -1.20000000000000E+01   0.00000000000000E+00  -4.34506536232615E-11
      1.33930357180463E-09  -1.41688806468388E-09  -1.21035146502515E-10  -9.61708592761201E-14
      4.06250000000000E-12
      8.00000000000000E-01   8.00000000000000E-01   0.00000000000000E+00   2.33330451666020E-11   1.09285444389097E-08
     -1.01891606931635E-08   7.62716790912748E-10   1.67014633087973E-13   0.00000000000000E+00   0.00000000000000E+00
      0.00000000000000E+00   2.10346165057532E-11  -1.97161986672273E-16   5.00295114295660E-10   5.21329533639427E-10
     -7.08437730649810E-14  -1.20000000000000E+01  -1.20000000000000E+01   0.00000000000000E+00  -9.18185480565411E-10
      2.03067858943962E-08  -2.06726467383830E-08  -1.28404632455218E-09  -9.61708600229914E-14
      6.59375000000000E-12
      8.00000000000000E-01   8.00000000000000E-01   0.00000000000000E+00   4.64868638268054E-10   2.25704976052133E-07
     -2.03909580970354E-07   2.22602637200473E-08   1.67014649197130E-13   0.00000000000000E+00   0.00000000000000E+00
      0.00000000000000E+00   4.26287474391790E-10  -1.97161960785444E-16   1.33042325724499E-08   1.37305198496797E-08
     -7.08437567441281E-14  -1.20000000000000E+01  -1.20000000000000E+01   0.00000000000000E+00  -2.70394419053463E-08
      4.06028824697979E-07  -4.14980166362359E-07  -3.59907835697271E-08  -9.61708924530010E-14
      1.03906250000000E-11
      8.00000000000000E-01   8.00000000000000E-01   0.00000000000000E+00   3.89109199886382E-09   1.99447815251943E-06
     -1.69718647187588E-06   3.01182772642416E-07   1.67014993012825E-13   0.00000000000000E+00   0.00000000000000E+00
      0.00000000000000E+00   3.52473519388790E-09  -1.97161618907905E-16   1.82153673834814E-07   1.85678408831540E-07
     -7.08434047148672E-14  -1.20000000000000E+01  -1.20000000000000E+01   0.00000000000000E+00  -3.66402908744077E-07
      3.37368717893358E-06  -3.49414545166346E-06  -4.86861181473957E-07  -9.61715882979569E-14
      1.60859375000000E-11
      8.00000000000000E-01   8.00000000000000E-01   0.00000000000000E+00   2.29486324216549E-09   1.64991239074899E-06
     -9.08200867909733E-07   7.44006386081425E-07   1.67016813721700E-13   0.00000000000000E+00   0.00000000000000E+00
      0.00000000000000E+00   1.56818644384330E-09  -1.97161108310473E-16   4.33111190046701E-07   4.34679376293383E-07
     -7.08416005459228E-14  -1.20000000000000E+01  -1.20000000000000E+01   0.00000000000000E+00  -8.84788273466535E-07
      1.77770123659122E-06  -2.07159872549949E-06  -1.17868576237481E-06  -9.61752131757760E-14
      2.46289062500000E-11
      8.00000000000000E-01   8.00000000000000E-01   0.00000000000000E+00   3.28747139559762E-10   1.00168139975402E-06
     -2.26919798324831E-08   9.79318167061099E-07   1.67021389554719E-13   0.00000000000000E+00   0.00000000000000E+00
      0.00000000000000E+00  -3.79775915733220E-10  -1.97160993332708E-16   4.87812161951561E-07   4.87432385838666E-07
     -7.08375825377457E-14  -1.20000000000000E+01  -1.20000000000000E+01   0.00000000000000E+00  -1.09059172654895E-06
      3.29405967376499E-09  -3.79452886024577E-07  -1.46675055289976E-06  -9.61838070169734E-14
      3.74433593750000E-11
      8.00000000000000E-01   8.00000000000000E-01   0.00000000000000E+00   2.37945392739401E-10   1.08349169638061E-06
     -1.91440963254840E-08   1.06458554544787E-06   1.67029562249012E-13   0.00000000000000E+00   0.00000000000000E+00
      0.00000000000000E+00  -2.89693244951739E-10  -1.97161149888619E-16   4.08165201877463E-07   4.07875508435351E-07
     -7.08318650243437E-14  -1.20000000000000E+01  -1.20000000000000E+01   0.00000000000000E+00  -1.07684946026480E-06
     -4.00808719482487E-15  -3.95611589610327E-07  -1.47246105388322E-06  -9.61976972246691E-14
      5.66650390625000E-11
      8.00000000000000E-01   8.00000000000000E-01   0.00000000000000E+00   1.64922237501341E-10   1.17018957435939E-06
     -1.65934776937496E-08   1.15376101890315E-06   1.67043098250862E-13   0.00000000000000E+00   0.00000000000000E+00
      0.00000000000000E+00  -2.15450442625078E-10  -1.97161330359699E-16   3.16476673647572E-07   3.16261223007786E-07
     -7.08249430238212E-14  -1.20000000000000E+01  -1.20000000000000E+01   0.00000000000000E+00  -1.05168070128974E-06
     -4.08287289761789E-15  -4.18341536538319E-07  -1.47002224191093E-06  -9.62181552270410E-14
      8.54975585937500E-11
      8.00000000000000E-01   8.00000000000000E-01   0.00000000000000E+00   9.88579670399722E-11   1.25184921073285E-06
     -1.33833863203940E-08   1.23856468237949E-06   1.67065221237213E-13   0.00000000000000E+00   0.00000000000000E+00
      0.00000000000000E+00  -1.47154451904991E-10  -1.97161524712003E-16   2.18274136038585E-07   2.18126981389518E-07
     -7.08173066529582E-14  -1.20000000000000E+01  -1.20000000000000E+01   0.00000000000000E+00  -1.01256103385582E-06
     -4.12062788636818E-15  -4.44130625792564E-07  -1.45669166376901E-06  -9.62479145842550E-14
      1.28746337890625E-10
      8.00000000000000E-01   8.00000000000000E-01   0.00000000000000E+00   4.60420652721389E-11   1.31459524138235E-06
     -9.68577995719478E-09   1.30495550349043E-06   1.67100521331845E-13   0.00000000000000E+00   0.00000000000000E+00
      0.00000000000000E+00  -9.16288433625518E-11  -1.97161719743436E-16   1.21474227191417E-07   1.21382598150893E-07
     -7.08100744969882E-14  -1.20000000000000E+01  -1.20000000000000E+01   0.00000000000000E+00  -9.54505088661259E-07
     -4.13807855218170E-15  -4.71833008841988E-07  -1.42633810164133E-06  -9.62904468348573E-14
      1.93619506835937E-10
      8.00000000000000E-01   8.00000000000000E-01   0.00000000000000E+00   9.83683899779574E-12   1.34389541921934E-06
     -5.95511418648595E-09   1.33795014187185E-06   1.67154903482190E-13   0.00000000000000E+00   0.00000000000000E+00
      0.00000000000000E+00  -5.32381027223441E-11  -1.97161904252516E-16   3.38693419682128E-08   3.38161036683286E-08
     -7.08051920608972E-14  -1.20000000000000E+01  -1.20000000000000E+01   0.00000000000000E+00  -8.73287273430050E-07
     -4.14553241831785E-15  -4.98478967964593E-07  -1.37176624554018E-06  -9.63497114212927E-14
      2.42274383544922E-10
      8.00000000000000E-01   8.00000000000000E-01   0.00000000000000E+00  -1.71525740440666E-12   1.34199088965986E-06
     -4.15129398866511E-09   1.33783788041379E-06   1.67195477498172E-13   0.00000000000000E+00   0.00000000000000E+00
      0.00000000000000E+00  -4.11205909492288E-11  -1.97162001802885E-16  -9.53197106490613E-09  -9.57309185301736E-09
     -7.08046377671215E-14  -1.20000000000000E+01  -1.20000000000000E+01   0.00000000000000E+00  -8.17690119303039E-07
     -4.14770507031062E-15  -5.10574665110028E-07  -1.32826478856077E-06  -9.63908397310501E-14
      3.15256698608398E-10
      8.00000000000000E-01   8.00000000000000E-01   0.00000000000000E+00  -9.28843791424757E-12   1.32543884024830E-06
     -2.42123974836495E-09   1.32300831206202E-06   1.67254959015542E-13   0.00000000000000E+00   0.00000000000000E+00
      0.00000000000000E+00  -3.34262074331149E-11  -1.97162124390917E-16  -6.09218952094276E-08  -6.09553216140228E-08
     -7.08072520059292E-14  -1.20000000000000E+01  -1.20000000000000E+01   0.00000000000000E+00  -7.41312264738107E-07
     -4.14990787003100E-15  -5.20740721559979E-07  -1.26205299044799E-06  -9.64477070096126E-14
      3.69993434906006E-10
      8.00000000000000E-01   8.00000000000000E-01   0.00000000000000E+00  -1.13387615251626E-11   1.30867278394037E-06
     -1.63073366577498E-09   1.30703071151307E-06   1.67298343265621E-13   0.00000000000000E+00   0.00000000000000E+00
      0.00000000000000E+00  -3.13850202430542E-11  -1.97162208673184E-16  -9.46626501255805E-08  -9.46940353429858E-08
     -7.08115176713336E-14  -1.20000000000000E+01  -1.20000000000000E+01   0.00000000000000E+00  -6.88272153434262E-07
     -4.15126878101548E-15  -5.24064518584557E-07  -1.21233667617009E-06  -9.64868255942878E-14
      4.52098539352417E-10
      8.00000000000000E-01   8.00000000000000E-01   0.00000000000000E+00  -1.26919729104711E-11   1.28170538599492E-06
     -9.10188275564380E-10   1.28078250574645E-06   1.67361500459090E-13   0.00000000000000E+00   0.00000000000000E+00
      0.00000000000000E+00  -2.98123411765876E-11  -1.97162331183218E-16  -1.42480806587144E-07  -1.42510619125483E-07
     -7.08212570577713E-14  -1.20000000000000E+01  -1.20000000000000E+01   0.00000000000000E+00  -6.13321285742321E-07
     -4.15309847278757E-15  -5.24950596725546E-07  -1.13827188662097E-06  -9.65402434013187E-14
      5.13677367687225E-10
      8.00000000000000E-01   8.00000000000000E-01   0.00000000000000E+00  -1.35342969111226E-11   1.26057986673738E-06
     -5.99164661586912E-10   1.25996716777888E-06   1.67407434403701E-13   0.00000000000000E+00   0.00000000000000E+00
      0.00000000000000E+00  -2.85123357545366E-11  -1.97162420286609E-16  -1.76671244502070E-07  -1.76699757034987E-07
     -7.08310777086928E-14  -1.20000000000000E+01  -1.20000000000000E+01   0.00000000000000E+00  -5.59742416606641E-07
     -4.15433138093937E-15  -5.23524989982922E-07  -1.08326741074390E-06  -9.65763566950073E-14
      5.59861488938332E-10
      8.00000000000000E-01   8.00000000000000E-01   0.00000000000000E+00  -1.44473800668169E-11   1.24391120620560E-06
     -4.43395214296659E-10   1.24345336361124E-06   1.67441095003266E-13   0.00000000000000E+00   0.00000000000000E+00
      0.00000000000000E+00  -2.70647716592885E-11  -1.97162484573564E-16  -2.01077373349886E-07  -2.01104438318708E-07
     -7.08397920208835E-14  -1.20000000000000E+01  -1.20000000000000E+01   0.00000000000000E+00  -5.20620755198799E-07
     -4.15518301893733E-15  -5.21728165938550E-07  -1.04234892529253E-06  -9.66013029823807E-14
      6.29137670814991E-10
      8.00000000000000E-01   8.00000000000000E-01   0.00000000000000E+00  -1.65297580996591E-11   1.21646095805008E-06
     -2.87817452079972E-10   1.21615661083990E-06   1.67490251296239E-13   0.00000000000000E+00   0.00000000000000E+00
      0.00000000000000E+00  -2.38440515512591E-11  -1.97162574183158E-16  -2.34613331163943E-07  -2.34637175412657E-07
     -7.08548736798101E-14  -1.20000000000000E+01  -1.20000000000000E+01   0.00000000000000E+00  -4.63229480580418E-07
     -4.15634641855991E-15  -5.18289950690476E-07  -9.81519435427241E-07  -9.66353776164289E-14
      7.33051943629980E-10
      8.00000000000000E-01   8.00000000000000E-01   0.00000000000000E+00  -2.14132333091688E-11   1.16626832716094E-06
     -1.58952836770681E-10   1.16608796109086E-06   1.67560493404846E-13   0.00000000000000E+00   0.00000000000000E+00
      0.00000000000000E+00  -1.64468966067093E-11  -1.97162684767291E-16  -2.74481631836498E-07  -2.74498078930268E-07
     -7.08813441413662E-14  -1.20000000000000E+01  -1.20000000000000E+01   0.00000000000000E+00  -3.79439787916925E-07
     -4.15784118245136E-15  -5.12150090085831E-07  -8.91589882160597E-07  -9.66791492634802E-14
      8.10987648241222E-10
      8.00000000000000E-01   8.00000000000000E-01   0.00000000000000E+00  -2.62693171614170E-11   1.11879121016826E-06
     -1.08520971658217E-10   1.11865641987944E-06   1.67609789761977E-13   0.00000000000000E+00   0.00000000000000E+00
      0.00000000000000E+00  -9.10072875955702E-12  -1.97162742131368E-16  -2.93302401781686E-07  -2.93311502707608E-07
     -7.09034593573563E-14  -1.20000000000000E+01  -1.20000000000000E+01   0.00000000000000E+00  -3.18205037498035E-07
     -4.15876962718112E-15  -5.07139875515022E-07  -8.25344917171827E-07  -9.67063304046216E-14
      9.27891205158085E-10
      8.00000000000000E-01   8.00000000000000E-01   0.00000000000000E+00  -3.43374204105770E-11   1.02806756954394E-06
     -6.73015356437016E-11   1.02796593058789E-06   1.67676461980088E-13   0.00000000000000E+00   0.00000000000000E+00
      0.00000000000000E+00   3.47966946716510E-12  -1.97162776637830E-16  -2.99302247266557E-07  -2.99298767794253E-07
     -7.09381520737193E-14  -1.20000000000000E+01  -1.20000000000000E+01   0.00000000000000E+00  -2.29244890395898E-07
     -4.15986238898833E-15  -4.99422268237873E-07  -7.28667162793633E-07  -9.67383099063691E-14
      1.01556887284573E-09
      8.00000000000000E-01   8.00000000000000E-01   0.00000000000000E+00  -3.99304122737164E-11   9.44565868142101E-07
     -5.10072344030490E-11   9.44474930495424E-07   1.67719367728965E-13   0.00000000000000E+00   0.00000000000000E+00
      0.00000000000000E+00   1.28522899362675E-11  -1.97162759854472E-16  -2.85386967870314E-07  -2.85374115777540E-07
     -7.09637653745547E-14  -1.20000000000000E+01  -1.20000000000000E+01   0.00000000000000E+00  -1.65473658365342E-07
     -4.16045372398696E-15  -4.93627152192089E-07  -6.59100814717885E-07  -9.67556023544106E-14
      1.14708537437720E-09
      8.00000000000000E-01   8.00000000000000E-01   0.00000000000000E+00  -4.54437857647367E-11   8.00187152261484E-07
     -3.70585297105194E-11   8.00104649946009E-07   1.67769698311996E-13   0.00000000000000E+00   0.00000000000000E+00
      0.00000000000000E+00   2.41044965674576E-11  -1.97162674548591E-16  -2.38370432306943E-07  -2.38346328007539E-07
     -7.09982282492479E-14  -1.20000000000000E+01  -1.20000000000000E+01   0.00000000000000E+00  -7.66541348905210E-08
     -4.16099730799683E-15  -4.85104182886952E-07  -5.61758321938470E-07  -9.67714700627477E-14
      1.24572275052581E-09
      8.00000000000000E-01   8.00000000000000E-01   0.00000000000000E+00  -4.64500764758086E-11   6.83930725147975E-07
     -3.10289174998588E-11   6.83853246154000E-07   1.67795244358283E-13   0.00000000000000E+00   0.00000000000000E+00
      0.00000000000000E+00   2.90956614123904E-11  -1.97162576258109E-16  -1.88044280489411E-07  -1.88015185025161E-07
     -7.10191870722215E-14  -1.20000000000000E+01  -1.20000000000000E+01   0.00000000000000E+00  -1.69386612306502E-08
     -4.16115564149877E-15  -4.78899395737030E-07  -4.95838061128836E-07  -9.67760572860609E-14
      1.39367881474871E-09
      8.00000000000000E-01   8.00000000000000E-01   0.00000000000000E+00  -4.28370624295492E-11   5.14278791466658E-07
     -2.52535302091881E-11   5.14210700874019E-07   1.67813413322493E-13   0.00000000000000E+00   0.00000000000000E+00
      0.00000000000000E+00   3.03857200550561E-11  -1.97162406715611E-16  -1.03403975975903E-07  -1.03373590453010E-07
     -7.10405832153404E-14  -1.20000000000000E+01  -1.20000000000000E+01   0.00000000000000E+00   5.90929515472874E-08
     -4.16104853474051E-15  -4.69930057807246E-07  -4.10837110421007E-07  -9.67728301071522E-14
      1.50464586291589E-09
      8.00000000000000E-01   8.00000000000000E-01   0.00000000000000E+00  -3.70850195159648E-11   4.00917784299177E-07
     -2.23779167792885E-11   4.00858321362882E-07   1.67812178924889E-13   0.00000000000000E+00   0.00000000000000E+00
      0.00000000000000E+00   2.73181463376228E-11  -1.97162280210753E-16  -4.22564228581535E-08  -4.22291049089781E-08
     -7.10484886960179E-14  -1.20000000000000E+01  -1.20000000000000E+01   0.00000000000000E+00   1.04807807797587E-07
     -4.16073912171280E-15  -4.63437020090752E-07  -3.58629216453903E-07  -9.67636902288709E-14
      1.67109643516666E-09
      8.00000000000000E-01   8.00000000000000E-01   0.00000000000000E+00  -2.66043579768510E-11   2.65770407254130E-07
     -1.92483568807987E-11   2.65724554539272E-07   1.67790760740869E-13   0.00000000000000E+00   0.00000000000000E+00
      0.00000000000000E+00   1.93911124771371E-11  -1.97162109756769E-16   3.19031948893214E-08   3.19225858046364E-08
     -7.10489319916867E-14  -1.20000000000000E+01  -1.20000000000000E+01   0.00000000000000E+00   1.56236651062050E-07
     -4.15999707351966E-15  -4.53883787245960E-07  -2.97647140343907E-07  -9.67418287491820E-14
      1.79593436435473E-09
      8.00000000000000E-01   8.00000000000000E-01   0.00000000000000E+00  -1.91035100703091E-11   1.93296498981242E-07
     -1.74727399495541E-11   1.93259922731222E-07   1.67762878844616E-13   0.00000000000000E+00   0.00000000000000E+00
      0.00000000000000E+00   1.29123090550207E-11  -1.97161996491570E-16   7.01414659352459E-08   7.01543780471390E-08
     -7.10422847404100E-14  -1.20000000000000E+01  -1.20000000000000E+01   0.00000000000000E+00   1.83228933229724E-07
     -4.15927554988729E-15  -4.46643229848809E-07  -2.63414300778361E-07  -9.67205941042063E-14
      1.98319125813684E-09
      8.00000000000000E-01   8.00000000000000E-01   0.00000000000000E+00  -1.05565838265993E-11   1.23340042913010E-07
     -1.53218050021214E-11   1.23314164524181E-07   1.67709316130534E-13   0.00000000000000E+00   0.00000000000000E+00
      0.00000000000000E+00   5.07575480296900E-12  -1.97161837638828E-16   1.01640262505782E-07   1.01645338063423E-07
     -7.10256527402154E-14  -1.20000000000000E+01  -1.20000000000000E+01   0.00000000000000E+00   2.10044602118333E-07
     -4.15802006260105E-15  -4.35004100547917E-07  -2.24959502587605E-07  -9.66836633903205E-14
      2.12363392847343E-09
      8.00000000000000E-01   8.00000000000000E-01   0.00000000000000E+00  -6.48614266405870E-12   9.30857034203905E-08
     -1.39740792755220E-11   9.30652431984509E-08   1.67663738638196E-13   0.00000000000000E+00   0.00000000000000E+00
      0.00000000000000E+00   1.21046871855330E-12  -1.97161721035678E-16   1.09801767694309E-07   1.09802977965866E-07
     -7.10104649868041E-14  -1.20000000000000E+01  -1.20000000000000E+01   0.00000000000000E+00   2.22270692592879E-07
     -4.15698662881558E-15  -4.25138909600210E-07  -2.02868221164317E-07  -9.66532736513916E-14
      2.33429793397831E-09
      8.00000000000000E-01   8.00000000000000E-01   0.00000000000000E+00  -3.19536418608616E-12   6.75214189740126E-08
     -1.22207650415670E-11   6.75060028447849E-08   1.67592304591777E-13   0.00000000000000E+00   0.00000000000000E+00
      0.00000000000000E+00  -1.90628957204274E-12  -1.97161551932560E-16   1.07931482257360E-07   1.07929575770627E-07
     -7.09869585416864E-14  -1.20000000000000E+01  -1.20000000000000E+01   0.00000000000000E+00   2.31981960436377E-07
     -4.15535649132704E-15  -4.07417534896431E-07  -1.75435578615411E-07  -9.66053460500905E-14
      2.49229593810696E-09
      8.00000000000000E-01   8.00000000000000E-01   0.00000000000000E+00  -2.09241733191894E-12   5.68327338137035E-08
     -1.10649240507571E-11   5.68195764723209E-08   1.67538603857777E-13   0.00000000000000E+00   0.00000000000000E+00
      0.00000000000000E+00  -2.86692828561165E-12  -1.97161437718626E-16   1.00636079997399E-07   1.00633212871952E-07
     -7.09700824530148E-14  -1.20000000000000E+01  -1.20000000000000E+01   0.00000000000000E+00   2.33797291045855E-07
     -4.15410378280394E-15  -3.91250076236025E-07  -1.57452789344274E-07  -9.65685214047620E-14
      2.72929294429995E-09
      8.00000000000000E-01   8.00000000000000E-01   0.00000000000000E+00  -1.36688356132395E-12   4.62931134496297E-08
     -9.52941433851782E-12   4.62822171517299E-08   1.67460874328120E-13   0.00000000000000E+00   0.00000000000000E+00
      0.00000000000000E+00  -3.28071843757399E-12  -1.97161303111932E-16   8.65974629708468E-08   8.65941820552479E-08
     -7.09472761344099E-14  -1.20000000000000E+01  -1.20000000000000E+01   0.00000000000000E+00   2.28952323244230E-07
     -4.15223504174856E-15  -3.61828718298972E-07  -1.32876399206977E-07  -9.65135981937106E-14
      2.90704069894469E-09
      8.00000000000000E-01   8.00000000000000E-01   0.00000000000000E+00  -1.13139821857331E-12   4.04755814865758E-08
     -8.51389238681153E-12   4.04659361959704E-08   1.67406077471286E-13   0.00000000000000E+00   0.00000000000000E+00
      0.00000000000000E+00  -3.20227234275843E-12  -1.97161235600532E-16   7.55881512883320E-08   7.55849488188280E-08
     -7.09323993785676E-14  -1.20000000000000E+01  -1.20000000000000E+01   0.00000000000000E+00   2.19853342834715E-07
     -4.15087645418301E-15  -3.35904223698637E-07  -1.16050885014798E-07  -9.64736780927185E-14
      3.17366233091180E-09
      8.00000000000000E-01   8.00000000000000E-01   0.00000000000000E+00  -9.15984998136130E-13   3.33015129036467E-08
     -7.18052720015198E-12   3.32934163914484E-08   1.67331386659477E-13   0.00000000000000E+00   0.00000000000000E+00
      0.00000000000000E+00  -2.85470156718536E-12  -1.97161183539157E-16   6.01565869331539E-08   6.01537320344255E-08
     -7.09136301637139E-14  -1.20000000000000E+01  -1.20000000000000E+01   0.00000000000000E+00   1.98996722655046E-07
     -4.14897271177487E-15  -2.92443866931947E-07  -9.34471484258739E-08  -9.64177564957635E-14
      3.37362855488714E-09
      8.00000000000000E-01   8.00000000000000E-01   0.00000000000000E+00  -7.95256422896998E-13   2.87857841817952E-08
     -6.31469474465706E-12   2.87786742306277E-08   1.67282052289114E-13   0.00000000000000E+00   0.00000000000000E+00
      0.00000000000000E+00  -2.51403337188530E-12  -1.97161174852633E-16   4.99138774429117E-08   4.99113632123786E-08
     -7.09021312997907E-14  -1.20000000000000E+01  -1.20000000000000E+01   0.00000000000000E+00   1.79208679477613E-07
     -4.14768421955529E-15  -2.57898712772934E-07  -7.86900374430062E-08  -9.63799209893233E-14
      3.52360322286864E-09
      8.00000000000000E-01   8.00000000000000E-01   0.00000000000000E+00  -7.15118335831281E-13   2.57935168684458E-08
     -5.73265246793600E-12   2.57870690976420E-08   1.67249048413744E-13   0.00000000000000E+00   0.00000000000000E+00
      0.00000000000000E+00  -2.24492761901046E-12  -1.97161180317952E-16   4.31051312842210E-08   4.31028861594409E-08
     -7.08947967721030E-14  -1.20000000000000E+01  -1.20000000000000E+01   0.00000000000000E+00   1.63050950680864E-07
     -4.14680980769303E-15  -2.31940901791137E-07  -6.88899552570828E-08  -9.63542516416413E-14
      3.74856522484089E-09
      8.00000000000000E-01   8.00000000000000E-01   0.00000000000000E+00  -6.06833643546926E-13   2.18660298506361E-08
     -4.95607091277784E-12   2.18604669460798E-08   1.67205946660353E-13   0.00000000000000E+00   0.00000000000000E+00
      0.00000000000000E+00  -1.85219579361044E-12  -1.97161201187324E-16   3.43181566267923E-08   3.43163042338375E-08
     -7.08855872240074E-14  -1.20000000000000E+01  -1.20000000000000E+01   0.00000000000000E+00   1.38284102490561E-07
     -4.14565495964343E-15  -1.94460869524824E-07  -5.61767711799174E-08  -9.63203594363454E-14
      4.08600822779926E-09
      8.00000000000000E-01   8.00000000000000E-01   0.00000000000000E+00  -4.69757938530535E-13   1.70739938036396E-08
     -3.97993174673734E-12   1.70695441139543E-08   1.67154738295395E-13   0.00000000000000E+00   0.00000000000000E+00
      0.00000000000000E+00  -1.32403165328590E-12  -1.97161249162546E-16   2.41249138594698E-08   2.41235896306552E-08
     -7.08750737498869E-14  -1.20000000000000E+01  -1.20000000000000E+01   0.00000000000000E+00   1.03309078813832E-07
     -4.14426778089269E-15  -1.44502208414174E-07  -4.11931337446096E-08  -9.62796645455077E-14
      4.59217273223682E-09
      8.00000000000000E-01   8.00000000000000E-01   0.00000000000000E+00  -3.15951056852847E-13   1.18499531621086E-08
     -2.85828421014398E-12   1.18467789268416E-08   1.67102772088061E-13   0.00000000000000E+00   0.00000000000000E+00
      0.00000000000000E+00  -7.43642474595026E-13  -1.97161336408525E-16   1.42474401613454E-08   1.42466963217095E-08
     -7.08646041938962E-14  -1.20000000000000E+01  -1.20000000000000E+01   0.00000000000000E+00   6.19965914516138E-08
     -4.14285262638193E-15  -8.80900625573122E-08  -2.60934752485510E-08  -9.62381678941652E-14
      5.35141948889316E-09
      8.00000000000000E-01   8.00000000000000E-01   0.00000000000000E+00  -1.75876644779658E-13   6.99153252514535E-09
     -1.73159801177937E-12   6.98962505048879E-09   1.67061100594239E-13   0.00000000000000E+00   0.00000000000000E+00
      0.00000000000000E+00  -2.92600219117490E-13  -1.97161471031279E-16   6.98303582595010E-09   6.98274302856952E-09
     -7.08557938458260E-14  -1.20000000000000E+01  -1.20000000000000E+01   0.00000000000000E+00   2.69334650785748E-08
     -4.14173144125687E-15  -4.09058290159017E-08  -1.39723680790583E-08  -9.62053067484125E-14
      6.49028962387768E-09
      8.00000000000000E-01   8.00000000000000E-01   0.00000000000000E+00  -7.86560835595244E-14   3.27040950240849E-09
     -8.06095675471968E-13   3.26952475064946E-09   1.67035314284736E-13   0.00000000000000E+00   0.00000000000000E+00
      0.00000000000000E+00  -9.17827741770565E-14  -1.97161652244345E-16   3.05558297797562E-09   3.05549099803979E-09
     -7.08494576467805E-14  -1.20000000000000E+01  -1.20000000000000E+01   0.00000000000000E+00   9.12487436518641E-09
     -4.14106744497555E-15  -1.54498859728082E-08  -6.32501574868924E-09  -9.61858566379547E-14
      8.19859482635445E-09
      8.00000000000000E-01   8.00000000000000E-01   0.00000000000000E+00  -2.52279161533506E-14   1.02764694444298E-09
     -2.44887202271101E-13   1.02737682932455E-09   1.67021433510307E-13   0.00000000000000E+00   0.00000000000000E+00
      0.00000000000000E+00  -3.35879027115797E-14  -1.97161859536802E-16   1.08701338111694E-09   1.08697959605237E-09
     -7.08455953515744E-14  -1.20000000000000E+01  -1.20000000000000E+01   0.00000000000000E+00   3.12974300716534E-09
     -4.14072518668279E-15  -5.24409529181707E-09  -2.11435642537692E-09  -9.61758381587332E-14
      1.07610526300696E-08
      8.00000000000000E-01   8.00000000000000E-01   0.00000000000000E+00  -3.55791789238961E-15   1.41609948588739E-10
     -3.33382372794589E-14   1.41573052433567E-10   1.67015580362692E-13   0.00000000000000E+00   0.00000000000000E+00
      0.00000000000000E+00  -5.25419697161985E-15  -1.97162039379143E-16   2.07308405432261E-10   2.07302954073250E-10
     -7.08440197644738E-14  -1.20000000000000E+01  -1.20000000000000E+01   0.00000000000000E+00   4.89752495212177E-10
     -4.14057903363308E-15  -8.38624361139961E-10  -3.48876006506817E-10  -9.61715605982194E-14
      1.26828959828560E-08
      8.00000000000000E-01   8.00000000000000E-01   0.00000000000000E+00  -8.75954014050679E-16   3.61455518254004E-11
     -8.47497697772841E-15   3.61362008944086E-11   1.67014864456331E-13   0.00000000000000E+00   0.00000000000000E+00
      0.00000000000000E+00  -1.19024799499677E-15  -1.97162101580528E-16   9.81156451735675E-11   9.81142577634709E-11
     -7.08438332987424E-14  -1.20000000000000E+01  -1.20000000000000E+01   0.00000000000000E+00   1.07511978136943E-10
     -4.14056094689133E-15  -2.41758296233876E-10  -1.34250458657880E-10  -9.61710311575881E-14
      1.55656610120355E-08
      8.00000000000000E-01   8.00000000000000E-01   0.00000000000000E+00  -8.45057026540634E-17   3.64546306109424E-12
     -7.40365712939772E-16   3.64463818967865E-12   1.67014651993260E-13   0.00000000000000E+00   0.00000000000000E+00
      0.00000000000000E+00  -1.32942307193561E-16  -1.97162133148796E-16   6.61883321451479E-11   6.61880020407076E-11
     -7.08437766155469E-14  -1.20000000000000E+01  -1.20000000000000E+01   0.00000000000000E+00   1.18465548801111E-11
     -4.14055562413821E-15  -8.16750545548732E-11  -6.98326402303863E-11  -9.61708753777128E-14
      1.77277347839202E-08
      8.00000000000000E-01   8.00000000000000E-01   0.00000000000000E+00  -1.98859241565261E-17   1.00235424820946E-12
     -1.35795646988382E-16   1.00219856663831E-12   1.67014634757416E-13   0.00000000000000E+00   0.00000000000000E+00