DF-ISE text

Info {
  version   = 1.0
  type      = xyplot
  datasets  = [
    "time"
    "Ntop OuterVoltage" "Ntop InnerVoltage" "Ntop QuasiFermiPotential" "Ntop DisplacementCurrent" "Ntop eCurrent"
    "Ntop hCurrent" "Ntop TotalCurrent" "Ntop Charge" "Ptop OuterVoltage" "Ptop InnerVoltage"
    "Ptop QuasiFermiPotential" "Ptop DisplacementCurrent" "Ptop eCurrent" "Ptop hCurrent" "Ptop TotalCurrent"
    "Ptop Charge" "Pbot OuterVoltage" "Pbot InnerVoltage" "Pbot QuasiFermiPotential" "Pbot DisplacementCurrent"
    "Pbot eCurrent" "Pbot hCurrent" "Pbot TotalCurrent" "Pbot Charge" ]
  functions = [
    Time
    OuterVoltage InnerVoltage QuasiFermiPotential DisplacementCurrent eCurrent
    hCurrent TotalCurrent Charge OuterVoltage InnerVoltage
    QuasiFermiPotential DisplacementCurrent eCurrent hCurrent TotalCurrent
    Charge OuterVoltage InnerVoltage QuasiFermiPotential DisplacementCurrent
    eCurrent hCurrent TotalCurrent Charge ]
}

Data {
      5.00000000000000E-13
      8.00000000000000E-01   8.00000000000000E-01   0.00000000000000E+00   3.31645755603125E-15   1.15877020367997E-11
     -1.09965335165921E-11   5.94484977763706E-13   1.71121639905535E-13   0.00000000000000E+00   0.00000000000000E+00
      0.00000000000000E+00  -1.11991079757282E-13  -1.96738758269212E-16   1.63162996955167E-07   1.63162884767348E-07
     -4.72080767803328E-14  -1.70000000000000E+01  -1.70000000000000E+01   0.00000000000000E+00  -5.51617160688186E-13
      2.19343904607826E-11  -1.63184862025626E-07  -1.63163479252326E-07  -1.23913563125202E-13
      1.25000000000000E-12
      8.00000000000000E-01   8.00000000000000E-01   0.00000000000000E+00   1.74304205159643E-13   5.35503870070656E-11
     -5.07413450728199E-11   2.98334613940534E-12   1.71121639906318E-13   0.00000000000000E+00   0.00000000000000E+00
      0.00000000000000E+00  -3.30579163803916E-14  -1.96738758267071E-16   1.63164057211286E-07   1.63164023956631E-07
     -4.72080767797595E-14  -1.70000000000000E+01  -1.70000000000000E+01   0.00000000000000E+00  -3.23372101669605E-12
      1.01207850251696E-10  -1.63264981432005E-07  -1.63167007302770E-07  -1.23913563126558E-13
      2.37500000000000E-12
      8.00000000000000E-01   8.00000000000000E-01   0.00000000000000E+00   1.35606038469710E-12   4.49656407965984E-10
     -4.19838882606313E-10   3.11735857443678E-11   1.71121639917855E-13   0.00000000000000E+00   0.00000000000000E+00
      0.00000000000000E+00   1.01830238143998E-12  -1.96738758241488E-16   1.63176717673550E-07   1.63177735779193E-07
     -4.72080767711467E-14  -1.70000000000000E+01  -1.70000000000000E+01   0.00000000000000E+00  -3.51263206944948E-11
      8.37171084310640E-10  -1.64010954128553E-07  -1.63208909364937E-07  -1.23913563146708E-13
      4.06250000000000E-12
      8.00000000000000E-01   8.00000000000000E-01   0.00000000000000E+00   2.05507427661845E-11   7.00133637537116E-09
     -6.36905300042052E-09   6.52834117716825E-10   1.71121640260767E-13   0.00000000000000E+00   0.00000000000000E+00
      0.00000000000000E+00   1.47061888937968E-11  -1.96738757648012E-16   1.63470093915164E-07   1.63484799907319E-07
     -4.72080765101232E-14  -1.70000000000000E+01  -1.70000000000000E+01   0.00000000000000E+00  -7.42401148172530E-10
      1.26933881043518E-08  -1.76088620981214E-07  -1.64137634025035E-07  -1.23913563750643E-13
      6.59375000000000E-12
      8.00000000000000E-01   8.00000000000000E-01   0.00000000000000E+00   4.11477264191393E-10   1.46180239658363E-07
     -1.27460050691327E-07   1.91316662312277E-08   1.71121655044927E-13   0.00000000000000E+00   0.00000000000000E+00
      0.00000000000000E+00   2.96068216305695E-10  -1.96738739513767E-16   1.72423201190673E-07   1.72719269210240E-07
     -4.72080650744929E-14  -1.70000000000000E+01  -1.70000000000000E+01   0.00000000000000E+00  -2.18582409765969E-08
      2.53800991297750E-07  -4.23793685762621E-07  -1.91850935441468E-07  -1.23913589970434E-13
      1.03906250000000E-11
      8.00000000000000E-01   8.00000000000000E-01   0.00000000000000E+00   3.45591172074291E-09   1.31715759480152E-06
     -1.06087951729962E-06   2.59733989222643E-07   1.71121972498577E-13   0.00000000000000E+00   0.00000000000000E+00
      0.00000000000000E+00   2.42688497953470E-09  -1.96738501849635E-16   2.89587655391266E-07   2.92014540174063E-07
     -4.72078201823450E-14  -1.70000000000000E+01  -1.70000000000000E+01   0.00000000000000E+00  -2.96068677070891E-07
      2.10882850045936E-06  -2.36450835278518E-06  -5.51748529396707E-07  -1.23914152316232E-13
      1.60859375000000E-11
      8.00000000000000E-01   8.00000000000000E-01   0.00000000000000E+00   2.02788780161833E-09   1.20967071038896E-06
     -5.67699015286193E-07   6.43999582904380E-07   1.71123664733831E-13   0.00000000000000E+00   0.00000000000000E+00
      0.00000000000000E+00   1.02599449727519E-09  -1.96738158381866E-16   4.58059737363557E-07   4.59085731664094E-07
     -4.72065851785714E-14  -1.70000000000000E+01  -1.70000000000000E+01   0.00000000000000E+00  -7.14258168673671E-07
      1.11120765790252E-06  -1.50003480379733E-06  -1.10308531456848E-06  -1.23917079555260E-13
      2.46289062500000E-11
      8.00000000000000E-01   8.00000000000000E-01   0.00000000000000E+00   2.36764370256317E-10   8.55467879982475E-07
     -1.41804517626304E-08   8.41524192590101E-07   1.71127893411085E-13   0.00000000000000E+00   0.00000000000000E+00
      0.00000000000000E+00  -2.83528063131729E-10  -1.96738092599370E-16   4.89018096271054E-07   4.88734568011184E-07
     -4.72038847653684E-14  -1.70000000000000E+01  -1.70000000000000E+01   0.00000000000000E+00  -8.78304747796274E-07
      2.05905224930049E-09  -4.54013065054312E-07  -1.33025876060129E-06  -1.23924008645717E-13
      3.74433593750000E-11
      8.00000000000000E-01   8.00000000000000E-01   0.00000000000000E+00   1.52975384650853E-10   9.10339556555211E-07
     -1.19568880063379E-08   8.98535643933524E-07   1.71135278672684E-13   0.00000000000000E+00   0.00000000000000E+00
      0.00000000000000E+00  -1.97782817673617E-10  -1.96738204349550E-16   4.32080977053996E-07   4.31883194039584E-07
     -4.72001131898586E-14  -1.70000000000000E+01  -1.70000000000000E+01   0.00000000000000E+00  -8.62582022299124E-07
     -5.01686785026816E-15  -4.67836810657113E-07  -1.33041883797310E-06  -1.23935165482826E-13
      5.66650390625000E-11
      8.00000000000000E-01   8.00000000000000E-01   0.00000000000000E+00   9.54158992281643E-11   9.61595241740233E-07
     -1.03562777852454E-08   9.51334379854216E-07   1.71147091503216E-13   0.00000000000000E+00   0.00000000000000E+00
      0.00000000000000E+00  -1.39531765298682E-10  -1.96738322458975E-16   3.70997197664762E-07   3.70857665702725E-07
     -4.71956107506878E-14  -1.70000000000000E+01  -1.70000000000000E+01   0.00000000000000E+00  -8.34930721121008E-07
     -5.01759142881143E-15  -4.87261319418340E-07  -1.32219204555694E-06  -1.23951480752528E-13
      8.54975585937500E-11
      8.00000000000000E-01   8.00000000000000E-01   0.00000000000000E+00   5.10402955349073E-11   1.00372773999100E-06
     -8.34458550589197E-09   9.95434194780641E-07   1.71165624991018E-13   0.00000000000000E+00   0.00000000000000E+00
      0.00000000000000E+00  -9.37139330368392E-11  -1.96738438541715E-16   3.07941982746836E-07   3.07848268617060E-07
     -4.71906723491870E-14  -1.70000000000000E+01  -1.70000000000000E+01   0.00000000000000E+00  -7.93350227726389E-07
     -5.01832222078323E-15  -5.09932230652989E-07  -1.30328246339770E-06  -1.23974952641832E-13
      1.28746337890625E-10
      8.00000000000000E-01   8.00000000000000E-01   0.00000000000000E+00   1.99264233587035E-11   1.03005824809687E-06
     -6.03133132134714E-09   1.02404684319888E-06   1.71193986592717E-13   0.00000000000000E+00   0.00000000000000E+00
      0.00000000000000E+00  -6.07774299675989E-11  -1.96738534350643E-16   2.45316814884789E-07   2.45256037258083E-07
     -4.71859927974234E-14  -1.70000000000000E+01  -1.70000000000000E+01   0.00000000000000E+00  -7.35122882063148E-07
     -5.01930139266380E-15  -5.34179993374515E-07  -1.26930288045696E-06  -1.24007993795294E-13
      1.93619506835937E-10
      8.00000000000000E-01   8.00000000000000E-01   0.00000000000000E+00   8.99335573370197E-13   1.03477532926570E-06
     -3.70191686593675E-09   1.03107431173534E-06   1.71236095463021E-13   0.00000000000000E+00   0.00000000000000E+00
      0.00000000000000E+00  -4.07779822210050E-11  -1.96738578719804E-16   1.83698792007526E-07   1.83658013828567E-07
     -4.71829333382655E-14  -1.70000000000000E+01  -1.70000000000000E+01   0.00000000000000E+00  -6.58358184787643E-07
     -5.02061878228352E-15  -5.56374135755643E-07  -1.21473232556390E-06  -1.24053162124755E-13
      2.42274383544922E-10
      8.00000000000000E-01   8.00000000000000E-01   0.00000000000000E+00  -4.68393985137747E-12   1.02703750236718E-06
     -2.57751461989351E-09   1.02445530380744E-06   1.71266816535293E-13   0.00000000000000E+00   0.00000000000000E+00
      0.00000000000000E+00  -3.53709100661196E-11  -1.96738576327756E-16   1.48590263272748E-07   1.48554892165944E-07
     -4.71828721873442E-14  -1.70000000000000E+01  -1.70000000000000E+01   0.00000000000000E+00  -6.07339282025337E-07
     -5.02151401668682E-15  -5.65670908926530E-07  -1.17301019597338E-06  -1.24083944347949E-13
      3.15256698608398E-10
      8.00000000000000E-01   8.00000000000000E-01   0.00000000000000E+00  -8.44343099022886E-12   1.00975733009747E-06
     -1.50029336665916E-09   1.00824859329982E-06   1.71311300188009E-13   0.00000000000000E+00   0.00000000000000E+00
      0.00000000000000E+00  -3.21563737154212E-11  -1.96738597355224E-16   1.01859129206947E-07   1.01826972636493E-07
     -4.71856045363109E-14  -1.70000000000000E+01  -1.70000000000000E+01   0.00000000000000E+00  -5.37324184375179E-07
     -5.02272848780144E-15  -5.72751376538404E-07  -1.11007556593631E-06  -1.24125695651697E-13
      3.69993434906006E-10
      8.00000000000000E-01   8.00000000000000E-01   0.00000000000000E+00  -9.83051539628226E-12   9.94859641823224E-07
     -1.00855897916702E-09   9.93841252328660E-07   1.71343450745474E-13   0.00000000000000E+00   0.00000000000000E+00
      0.00000000000000E+00  -3.09830255847098E-11  -1.96738682050470E-16   6.89977166836438E-08   6.89667334613204E-08
     -4.71896933543795E-14  -1.70000000000000E+01  -1.70000000000000E+01   0.00000000000000E+00  -4.88190237085111E-07
     -5.02354506252364E-15  -5.74617743681326E-07  -1.06280798578998E-06  -1.24153757391095E-13
      4.11045987129211E-10
      8.00000000000000E-01   8.00000000000000E-01   0.00000000000000E+00  -1.07534276454581E-11   9.83007690003508E-07
     -7.52888047474688E-10   9.82244048528388E-07   1.71366913859516E-13   0.00000000000000E+00   0.00000000000000E+00
      0.00000000000000E+00  -3.00145218650703E-11  -1.96738807933857E-16   4.51969369297648E-08   4.51669222111609E-08
     -4.71938475635191E-14  -1.70000000000000E+01  -1.70000000000000E+01   0.00000000000000E+00  -4.52575365185135E-07
     -5.02410705352439E-15  -5.74835600530308E-07  -1.02741097073955E-06  -1.24173066295997E-13
      4.72624815464020E-10
      8.00000000000000E-01   8.00000000000000E-01   0.00000000000000E+00  -1.25115749643370E-11   9.63684305643831E-07
     -4.88940303624050E-10   9.63182853765242E-07   1.71401071252296E-13   0.00000000000000E+00   0.00000000000000E+00
      0.00000000000000E+00  -2.77869034357785E-11  -1.96739120510369E-16   1.13604716818078E-08   1.13326845816329E-08
     -4.72017413602331E-14  -1.70000000000000E+01  -1.70000000000000E+01   0.00000000000000E+00  -4.00555536164626E-07
     -5.02487157080688E-15  -5.73959997157376E-07  -9.74515538346874E-07  -1.24199329892063E-13
      5.18808936715126E-10
      8.00000000000000E-01   8.00000000000000E-01   0.00000000000000E+00  -1.43586442883412E-11   9.47345217147907E-07
     -3.57255476407086E-10   9.46973603027212E-07   1.71425836928957E-13   0.00000000000000E+00   0.00000000000000E+00
      0.00000000000000E+00  -2.52388685544826E-11  -1.96739459715616E-16  -1.18755341081479E-08  -1.19007731734418E-08
     -4.72088897863401E-14  -1.70000000000000E+01  -1.70000000000000E+01   0.00000000000000E+00  -3.62413440372029E-07
     -5.02538445876656E-15  -5.72659384456354E-07  -9.35072829853768E-07  -1.24216947142617E-13
      5.88085118591785E-10
      8.00000000000000E-01   8.00000000000000E-01   0.00000000000000E+00  -1.82369384301157E-11   9.18133151903241E-07
     -2.26342945176907E-10   9.17888572019634E-07   1.71461432945897E-13   0.00000000000000E+00   0.00000000000000E+00
      0.00000000000000E+00  -1.97104472607106E-11  -1.96740132320741E-16  -4.14301772688903E-08  -4.14498879128912E-08
     -4.72213254105254E-14  -1.70000000000000E+01  -1.70000000000000E+01   0.00000000000000E+00  -3.06337007599748E-07
     -5.02605878587176E-15  -5.70101671480936E-07  -8.76438684106743E-07  -1.24240107535372E-13
      6.91999391406774E-10
      8.00000000000000E-01   8.00000000000000E-01   0.00000000000000E+00  -2.62635307558668E-11   8.59125207497786E-07
     -1.18854742553229E-10   8.58980089224476E-07   1.71510445023590E-13   0.00000000000000E+00   0.00000000000000E+00
      0.00000000000000E+00  -7.89717782785341E-12  -1.96741390574362E-16  -6.86787015555785E-08  -6.86865989301477E-08
     -4.72427581531824E-14  -1.70000000000000E+01  -1.70000000000000E+01   0.00000000000000E+00  -2.24752775903456E-07
     -5.02686189649468E-15  -5.65540709364011E-07  -7.90293490294329E-07  -1.24267686870406E-13
      7.69935096018016E-10
      8.00000000000000E-01   8.00000000000000E-01   0.00000000000000E+00  -3.31242134068375E-11   8.00287903909656E-07
     -7.73650706676547E-11   8.00177414625582E-07   1.71542775774643E-13   0.00000000000000E+00   0.00000000000000E+00
      0.00000000000000E+00   2.64238408168958E-12  -1.96742288810200E-16  -7.23491845035494E-08  -7.23465423162100E-08
     -4.72598719333670E-14  -1.70000000000000E+01  -1.70000000000000E+01   0.00000000000000E+00  -1.65959587121718E-07
     -5.02730513735280E-15  -5.61871280160349E-07  -7.27830872309373E-07  -1.24282903841276E-13
      8.86838652934879E-10
      8.00000000000000E-01   8.00000000000000E-01   0.00000000000000E+00  -4.18274823949637E-11   6.89084876520488E-07
     -4.40280027945544E-11   6.88999021035298E-07   1.71581853582032E-13   0.00000000000000E+00   0.00000000000000E+00
      0.00000000000000E+00   1.75253336622135E-11  -1.96742251109401E-16  -4.92762050318982E-08  -4.92586798949782E-08
     -4.72844142467560E-14  -1.70000000000000E+01  -1.70000000000000E+01   0.00000000000000E+00  -8.34135185182991E-08
     -5.02772879886968E-15  -5.56326817594291E-07  -6.39740341140319E-07  -1.24297439335277E-13
      9.74516320622526E-10
      8.00000000000000E-01   8.00000000000000E-01   0.00000000000000E+00  -4.53156551596791E-11   5.92658665230565E-07
     -3.11831067474462E-11   5.92582166468657E-07   1.71602458160688E-13   0.00000000000000E+00   0.00000000000000E+00
      0.00000000000000E+00   2.56027986769366E-11  -1.96739261263763E-16  -1.28801374372062E-08  -1.28545348352686E-08
     -4.73001800672524E-14  -1.70000000000000E+01  -1.70000000000000E+01   0.00000000000000E+00  -2.74823288966907E-08
     -5.02787016640393E-15  -5.52245297708827E-07  -5.79727631633388E-07  -1.24302278093435E-13
      1.10603282215400E-09
      8.00000000000000E-01   8.00000000000000E-01   0.00000000000000E+00  -4.41221358545598E-11   4.44298695232666E-07
     -2.04937598783884E-11   4.44234079336933E-07   1.71618098949187E-13   0.00000000000000E+00   0.00000000000000E+00
      0.00000000000000E+00   3.02384582232929E-11  -1.96722567498948E-16   5.80433442218174E-08   5.80735824833181E-08
     -4.73169984315459E-14  -1.70000000000000E+01  -1.70000000000000E+01   0.00000000000000E+00   4.40185147352761E-08
     -5.02783683430824E-15  -5.46326171527691E-07  -5.02307661820252E-07  -1.24301100517640E-13
      1.20467019830260E-09
      8.00000000000000E-01   8.00000000000000E-01   0.00000000000000E+00  -3.89418560825140E-11   3.41817889952717E-07
     -1.60369307196318E-11   3.41762911165915E-07   1.71618206208614E-13   0.00000000000000E+00   0.00000000000000E+00
      0.00000000000000E+00   2.82617214602514E-11  -1.96692875222828E-16   1.13210950569768E-07   1.13239212094535E-07
     -4.73236065355623E-14  -1.70000000000000E+01  -1.70000000000000E+01   0.00000000000000E+00   8.70042699137761E-08
     -5.02764843683500E-15  -5.42006388146578E-07  -4.55002123260450E-07  -1.24294599673051E-13
      1.35262626252550E-09
      8.00000000000000E-01   8.00000000000000E-01   0.00000000000000E+00  -2.80832692516753E-11   2.18372333666207E-07
     -1.19014481450523E-11   2.18332348948810E-07   1.71602775147237E-13   0.00000000000000E+00   0.00000000000000E+00
      0.00000000000000E+00   2.03490107698684E-11  -1.96602456969472E-16   1.81898877648724E-07   1.81919226462891E-07
     -4.73247265949193E-14  -1.70000000000000E+01  -1.70000000000000E+01   0.00000000000000E+00   1.35173480462343E-07
     -5.02716807296935E-15  -5.35425050846875E-07  -4.00251575411700E-07  -1.24278048552318E-13
      1.46359331069268E-09
      8.00000000000000E-01   8.00000000000000E-01   0.00000000000000E+00  -1.99945997986569E-11   1.52425688738395E-07
     -9.90746912338535E-12   1.52395786669473E-07   1.71581798410516E-13   0.00000000000000E+00   0.00000000000000E+00
      0.00000000000000E+00   1.33554784261565E-11  -1.96489430243705E-16   2.17331974687940E-07   2.17345329969877E-07
     -4.73201831265190E-14  -1.70000000000000E+01  -1.70000000000000E+01   0.00000000000000E+00   1.60319211557482E-07
     -5.02669089495495E-15  -5.30060323170141E-07  -3.69741116639349E-07  -1.24261615283997E-13
      1.63004388294345E-09
      8.00000000000000E-01   8.00000000000000E-01   0.00000000000000E+00  -1.08209694159746E-11   8.97092142593493E-08
     -7.79301492024211E-12   8.96906002750131E-08   1.71541190292286E-13   0.00000000000000E+00   0.00000000000000E+00
      0.00000000000000E+00   4.87650999061736E-12  -1.96246780603818E-16   2.45621185390499E-07   2.45626061704243E-07
     -4.73084084527243E-14  -1.70000000000000E+01  -1.70000000000000E+01   0.00000000000000E+00   1.85001659951433E-07
     -5.02585349596377E-15  -5.20318316904836E-07  -3.35316661979256E-07  -1.24232781839562E-13
      1.75488181213153E-09
      8.00000000000000E-01   8.00000000000000E-01   0.00000000000000E+00  -6.53096558991461E-12   6.31589441782670E-08
     -6.62909983651549E-12   6.31457841128406E-08   1.71506712610900E-13   0.00000000000000E+00   0.00000000000000E+00
      0.00000000000000E+00   7.80017602800490E-13  -1.96021747186012E-16   2.52085161883929E-07   2.52085941705510E-07
     -4.72977236476300E-14  -1.70000000000000E+01  -1.70000000000000E+01   0.00000000000000E+00   1.95702097267492E-07
     -5.02516243391448E-15  -5.10933818060680E-07  -3.15231725818350E-07  -1.24208988963270E-13
      1.94213870591364E-09
      8.00000000000000E-01   8.00000000000000E-01   0.00000000000000E+00  -3.10097884803146E-12   4.12398883506671E-08
     -5.27433109618506E-12   4.12315130407229E-08   1.71453222990065E-13   0.00000000000000E+00   0.00000000000000E+00
      0.00000000000000E+00  -2.41134913503249E-12  -1.95663254143712E-16   2.48701064431087E-07   2.48698652886289E-07
     -4.72815783755974E-14  -1.70000000000000E+01  -1.70000000000000E+01   0.00000000000000E+00   2.02266848956555E-07
     -5.02407773778918E-15  -4.92197009859490E-07  -2.89930165927012E-07  -1.24171644614467E-13
      2.08258137625022E-09
      8.00000000000000E-01   8.00000000000000E-01   0.00000000000000E+00  -1.94912905150237E-12   3.24049263408500E-08
     -4.47291008087606E-12   3.23985043017176E-08   1.71413679080312E-13   0.00000000000000E+00   0.00000000000000E+00
      0.00000000000000E+00  -3.30817370402971E-12  -1.95408319302948E-16   2.40942797718044E-07   2.40939489348931E-07
     -4.72703619485095E-14  -1.70000000000000E+01  -1.70000000000000E+01   0.00000000000000E+00   2.00694555398940E-07
     -5.02325490687859E-15  -4.74032544026334E-07  -2.73337993650649E-07  -1.24143317131802E-13
      2.29324538175510E-09
      8.00000000000000E-01   8.00000000000000E-01   0.00000000000000E+00  -1.17131836837466E-12   2.41361821682758E-08
     -3.50597759708805E-12   2.41315048723104E-08   1.71357971702446E-13   0.00000000000000E+00   0.00000000000000E+00
      0.00000000000000E+00  -3.54449690134516E-12  -1.95085964647177E-16   2.27044311159461E-07   2.27040766467473E-07
     -4.72558313921971E-14  -1.70000000000000E+01  -1.70000000000000E+01   0.00000000000000E+00   1.89395269168556E-07
     -5.02205872949022E-15  -4.40567535486281E-07  -2.51172271339784E-07  -1.24102140310248E-13
      2.45124338588376E-09
      8.00000000000000E-01   8.00000000000000E-01   0.00000000000000E+00  -9.08681536799215E-13   1.98803535110298E-08
     -2.92475772431126E-12   1.98765200717687E-08   1.71320142745297E-13   0.00000000000000E+00   0.00000000000000E+00
      0.00000000000000E+00  -3.30607732304610E-12  -1.94897002540519E-16   2.16709888134284E-07   2.16706581862064E-07
     -4.72468270713307E-14  -1.70000000000000E+01  -1.70000000000000E+01   0.00000000000000E+00   1.75132316526001E-07
     -5.02122125761469E-15  -4.11715413438613E-07  -2.36583101933833E-07  -1.24073315673966E-13
      2.56974188898025E-09
      8.00000000000000E-01   8.00000000000000E-01   0.00000000000000E+00  -7.81778411606916E-13   1.72610892388500E-08
     -2.55321983017179E-12   1.72577542406082E-08   1.71294412074841E-13   0.00000000000000E+00   0.00000000000000E+00
      0.00000000000000E+00  -3.03601632835562E-12  -1.94782449395229E-16   2.09545543020133E-07   2.09542506809023E-07
     -4.72410850275409E-14  -1.70000000000000E+01  -1.70000000000000E+01   0.00000000000000E+00   1.62101772962469E-07
     -5.02064042821845E-15  -3.88902028991459E-07  -2.26800261049631E-07  -1.24053327047300E-13
      2.74748964362499E-09
      8.00000000000000E-01   8.00000000000000E-01   0.00000000000000E+00  -6.33834798023335E-13   1.39682610176301E-08
     -2.08124377921869E-12   1.39655459390528E-08   1.71260344227262E-13   0.00000000000000E+00   0.00000000000000E+00
      0.00000000000000E+00  -2.57968689081812E-12  -1.94646130553457E-16   2.00031838436034E-07   2.00029258554497E-07
     -4.72339193351232E-14  -1.70000000000000E+01  -1.70000000000000E+01   0.00000000000000E+00   1.40468487027135E-07
     -5.01985858118544E-15  -3.54463286500826E-07  -2.13994804493550E-07  -1.24026424892138E-13
      2.88080045960855E-09
      8.00000000000000E-01   8.00000000000000E-01   0.00000000000000E+00  -5.44360826040091E-13   1.19062324044974E-08
     -1.78483921153226E-12   1.19039032044598E-08   1.71238370969644E-13   0.00000000000000E+00   0.00000000000000E+00
      0.00000000000000E+00  -2.23257579268339E-12  -1.94566803137782E-16   1.93919721827608E-07   1.93917489057249E-07
     -4.72295510724919E-14  -1.70000000000000E+01  -1.70000000000000E+01   0.00000000000000E+00   1.23659625326632E-07
     -5.01934685084493E-15  -3.29481012568994E-07  -2.05821392261709E-07  -1.24008819897153E-13
      3.08076668358388E-09
      8.00000000000000E-01   8.00000000000000E-01   0.00000000000000E+00  -4.31914542247237E-13   9.34392385783355E-09
     -1.41590503987588E-12   9.34207603825143E-09   1.71210868147607E-13   0.00000000000000E+00   0.00000000000000E+00
      0.00000000000000E+00  -1.75016126126802E-12  -1.94476156626381E-16   1.86339032626726E-07   1.86337282270989E-07
     -4.72243308766758E-14  -1.70000000000000E+01  -1.70000000000000E+01   0.00000000000000E+00   9.93759661339541E-08
     -5.01869905253924E-15  -2.95055319424496E-07  -1.95679358309241E-07  -1.23986537270932E-13
      3.38071601954688E-09
      8.00000000000000E-01   8.00000000000000E-01   0.00000000000000E+00  -3.01405562336169E-13   6.46392816014322E-09
     -9.97644742929405E-13   6.46262910983795E-09   1.71180340287099E-13   0.00000000000000E+00   0.00000000000000E+00
      0.00000000000000E+00  -1.15761430680154E-12  -1.94388549989763E-16   1.78068502971616E-07   1.78067345162921E-07
     -4.72188160628181E-14  -1.70000000000000E+01  -1.70000000000000E+01   0.00000000000000E+00   6.80520185258719E-08
     -5.01797174352490E-15  -2.52581987780659E-07  -1.84529974272759E-07  -1.23961524224281E-13
      3.83064002349138E-09
      8.00000000000000E-01   8.00000000000000E-01   0.00000000000000E+00  -1.71496550589966E-13   3.69903632990666E-09
     -5.85899576396041E-13   3.69827893377968E-09   1.71152509493248E-13   0.00000000000000E+00   0.00000000000000E+00
      0.00000000000000E+00  -5.78568526339465E-13  -1.94331849378422E-16   1.70749184043977E-07   1.70748605281119E-07
     -4.72139596638955E-14  -1.70000000000000E+01  -1.70000000000000E+01   0.00000000000000E+00   3.55266928594891E-08
     -5.01730360829474E-15  -2.09973572057084E-07  -1.74446884214898E-07  -1.23938549829352E-13
      4.50552602940813E-09
      8.00000000000000E-01   8.00000000000000E-01   0.00000000000000E+00  -7.19042087213655E-14   1.60124029887800E-09
     -2.58681935139820E-13   1.60090971273414E-09   1.71133703389674E-13   0.00000000000000E+00   0.00000000000000E+00
      0.00000000000000E+00  -1.88818404310294E-13  -1.94345950217711E-16   1.66035121659730E-07   1.66034932646980E-07
     -4.72106091303924E-14  -1.70000000000000E+01  -1.70000000000000E+01   0.00000000000000E+00   1.21727707238044E-08
     -5.01685407622375E-15  -1.79808608066665E-07  -1.67635842359714E-07  -1.23923094259282E-13
      5.51785503828325E-09
      8.00000000000000E-01   8.00000000000000E-01   0.00000000000000E+00  -1.95669364187473E-14   4.53958488355171E-10
     -7.12971643008166E-14   4.53867624254451E-10   1.71125036738663E-13   0.00000000000000E+00   0.00000000000000E+00
      0.00000000000000E+00  -4.20920794630255E-14  -1.94470710496802E-16   1.63988304226916E-07   1.63988261940366E-07
     -4.72088493876667E-14  -1.70000000000000E+01  -1.70000000000000E+01   0.00000000000000E+00   2.64420002753468E-09
     -5.01665308213645E-15  -1.67086324575502E-07  -1.64442129564621E-07  -1.23916187350997E-13
      7.03634855159594E-09
      8.00000000000000E-01   8.00000000000000E-01   0.00000000000000E+00  -2.53963941635438E-15   5.58537181730316E-11
     -7.66646849025634E-15   5.58435120651250E-11   1.71122159657799E-13   0.00000000000000E+00   0.00000000000000E+00
      0.00000000000000E+00  -8.81680089460122E-15  -1.94727762929746E-16   1.63299188188232E-07   1.63299179176704E-07
     -4.72081772633709E-14  -1.70000000000000E+01  -1.70000000000000E+01   0.00000000000000E+00   5.01450830233811E-10
     -5.01658881985896E-15  -1.63856468502414E-07  -1.63355022688769E-07  -1.23913982394429E-13
      8.17521868658045E-09
      8.00000000000000E-01   8.00000000000000E-01   0.00000000000000E+00  -5.61031279904255E-16   1.21624232817790E-11
     -1.70478064001529E-15   1.21601574698590E-11   1.71121739529845E-13   0.00000000000000E+00   0.00000000000000E+00
      0.00000000000000E+00  -1.86208001039849E-15  -1.94922909614632E-16   1.63187805442368E-07   1.63187803385366E-07
     -4.72080937100049E-14  -1.70000000000000E+01  -1.70000000000000E+01   0.00000000000000E+00   1.19188362664631E-10
     -5.01657901320402E-15  -1.63319146888921E-07  -1.63199963542835E-07  -1.23913645819841E-13
      9.88352388905722E-09
      8.00000000000000E-01   8.00000000000000E-01   0.00000000000000E+00  -2.02009542032475E-17   9.21879620952802E-13
     -8.61609337490571E-17   9.21773259064849E-13   1.71121640938987E-13   0.00000000000000E+00   0.00000000000000E+00
      0.00000000000000E+00   1.67910718093929E-17  -1.95184721953258E-16   1.63163123634043E-07   1.63163123455650E-07
     -4.72080759930849E-14  -1.70000000000000E+01  -1.70000000000000E+01   0.00000000000000E+00  -1.65685532304909E-12
     -5.01657666083293E-15  -1.63162383357009E-07  -1.63164045228909E-07  -1.23913564945902E-13
      1.11647527909148E-08
      8.00000000000000E-01   8.00000000000000E-01   0.00000000000000E+00  -1.26742044473093E-17   4.18270970075966E-13
      1.97709755675355E-18   4.18260272969075E-13   1.71121639961317E-13   0.00000000000000E+00   0.00000000000000E+00
      0.00000000000000E+00   1.02655468181186E-16  -1.95353019955348E-16   1.63163015857324E-07   1.63163015764626E-07
     -4.72080754754484E-14  -1.70000000000000E+01  -1.70000000000000E+01   0.00000000000000E+00   1.56669391646568E-12
     -5.01657664685315E-15  -1.63164995702239E-07  -1.63163434024899E-07  -1.23913564485869E-13
      1.30865961437012E-08
      8.00000000000000E-01   8.00000000000000E-01   0.00000000000000E+00  -2.31936212596642E-18   2.30705475888166E-13
      2.04157048712699E-17   2.30723572230911E-13   1.71121638557019E-13   0.00000000000000E+00   0.00000000000000E+00
      0.00000000000000E+00  -3.75554226518093E-17  -1.95564030137879E-16   1.63162580455578E-07   1.63162580222458E-07
     -4.72080754217088E-14  -1.70000000000000E+01  -1.70000000000000E+01   0.00000000000000E+00   2.08616983733576E-14
     -5.01657660749375E-15  -1.63162826791152E-07  -1.63162810946030E-07  -1.23913563135310E-13
      1.59693611728807E-08
      8.00000000000000E-01   8.00000000000000E-01   0.00000000000000E+00  -2.65293486357962E-18   1.89776590929230E-13
      2.07215113181444E-17   1.89794659505685E-13   1.71121638904641E-13   0.00000000000000E+00   0.00000000000000E+00
      0.00000000000000E+00   1.34010089462215E-18  -1.95806794092246E-16   1.63162627555079E-07   1.63162627360612E-07
     -4.72080757353202E-14  -1.70000000000000E+01  -1.70000000000000E+01   0.00000000000000E+00  -7.51984146365283E-15
     -5.01657660850442E-15  -1.63162804618853E-07  -1.63162817155271E-07  -1.23913563169320E-13
      2.02935087166500E-08
      8.00000000000000E-01   8.00000000000000E-01   0.00000000000000E+00  -9.29280623267528E-17   1.52376129729694E-13
      2.07316610846311E-17   1.52303933328452E-13   1.71121639185777E-13   0.00000000000000E+00   0.00000000000000E+00