DF-ISE text

Info {
  version   = 1.0
  type      = xyplot
  datasets  = [
    "time"
    "Ntop_0_1 OuterVoltage" "Ntop_0_1 InnerVoltage" "Ntop_0_1 QuasiFermiPotential" "Ntop_0_1 DisplacementCurrent" "Ntop_0_1 eCurrent"
    "Ntop_0_1 hCurrent" "Ntop_0_1 TotalCurrent" "Ntop_0_1 Charge" "Ntop_1_0 OuterVoltage" "Ntop_1_0 InnerVoltage"
    "Ntop_1_0 QuasiFermiPotential" "Ntop_1_0 DisplacementCurrent" "Ntop_1_0 eCurrent" "Ntop_1_0 hCurrent" "Ntop_1_0 TotalCurrent"
    "Ntop_1_0 Charge" "Ntop_1_1 OuterVoltage" "Ntop_1_1 InnerVoltage" "Ntop_1_1 QuasiFermiPotential" "Ntop_1_1 DisplacementCurrent"
    "Ntop_1_1 eCurrent" "Ntop_1_1 hCurrent" "Ntop_1_1 TotalCurrent" "Ntop_1_1 Charge" "Ptop OuterVoltage"
    "Ptop InnerVoltage" "Ptop QuasiFermiPotential" "Ptop DisplacementCurrent" "Ptop eCurrent" "Ptop hCurrent"
    "Ptop TotalCurrent" "Ptop Charge" "Pbot OuterVoltage" "Pbot InnerVoltage" "Pbot QuasiFermiPotential"
    "Pbot DisplacementCurrent" "Pbot eCurrent" "Pbot hCurrent" "Pbot TotalCurrent" "Pbot Charge"
    "Ntop_0_0 OuterVoltage" "Ntop_0_0 InnerVoltage" "Ntop_0_0 QuasiFermiPotential" "Ntop_0_0 DisplacementCurrent" "Ntop_0_0 eCurrent"
    "Ntop_0_0 hCurrent" "Ntop_0_0 TotalCurrent" "Ntop_0_0 Charge" ]
  functions = [
    Time
    OuterVoltage InnerVoltage QuasiFermiPotential DisplacementCurrent eCurrent
    hCurrent TotalCurrent Charge OuterVoltage InnerVoltage
    QuasiFermiPotential DisplacementCurrent eCurrent hCurrent TotalCurrent
    Charge OuterVoltage InnerVoltage QuasiFermiPotential DisplacementCurrent
    eCurrent hCurrent TotalCurrent Charge OuterVoltage
    InnerVoltage QuasiFermiPotential DisplacementCurrent eCurrent hCurrent
    TotalCurrent Charge OuterVoltage InnerVoltage QuasiFermiPotential
    DisplacementCurrent eCurrent hCurrent TotalCurrent Charge
    OuterVoltage InnerVoltage QuasiFermiPotential DisplacementCurrent eCurrent
    hCurrent TotalCurrent Charge ]
}

Data {
      5.00000000000000E-13
      8.00000000000000E-01   8.00000000000000E-01   0.00000000000000E+00   2.51622143193299E-15   1.40284256309198E-13
      2.07479500049155E-17   1.42821225691136E-13   1.40817227138756E-13   8.00000000000000E-01   8.00000000000000E-01
      0.00000000000000E+00  -2.46213267461087E-15   1.38653476446418E-13   2.07479499541936E-17   1.36212091721762E-13
      1.98977550532603E-13   8.00000000000000E-01   8.00000000000000E-01   0.00000000000000E+00   1.16267277399377E-15
      1.37043615982139E-13   2.07479499228338E-17   1.38227036706055E-13   1.76066664591739E-13   0.00000000000000E+00
      0.00000000000000E+00   0.00000000000000E+00  -4.39069147370360E-13   1.82675901133490E-12   3.44574294353886E-11
      3.58451192993531E-11  -3.01640792972166E-13  -1.10000000000000E+01  -1.10000000000000E+01   0.00000000000000E+00
     -4.42840479460384E-14   3.63101162996030E-12  -3.99913519185417E-11  -3.64046243365274E-11  -3.62576645201909E-13
      8.00000000000000E-01   8.00000000000000E-01   0.00000000000000E+00   2.75796323346512E-15   1.39465971871959E-13
      2.07479498213160E-17   1.42244683055246E-13   1.48355995910975E-13
      1.25000000000000E-12
      8.00000000000000E-01   8.00000000000000E-01   0.00000000000000E+00   3.53201868609261E-15   1.37229047794613E-13
      2.07479500032690E-17   1.40781814430709E-13   1.40817227138757E-13   8.00000000000000E-01   8.00000000000000E-01
      0.00000000000000E+00   2.60189412605670E-15   1.37291706572689E-13   2.07479499647819E-17   1.39914348648710E-13
      1.98977550532603E-13   8.00000000000000E-01   8.00000000000000E-01   0.00000000000000E+00   2.83982889295024E-15
      1.36988108709768E-13   2.07479499162875E-17   1.39848685552635E-13   1.76066664591740E-13   0.00000000000000E+00
      0.00000000000000E+00   0.00000000000000E+00  -4.97694633005864E-13   8.43591639301191E-12   2.82798775590684E-11
      3.62180993190744E-11  -3.01640792971746E-13  -1.10000000000000E+01  -1.10000000000000E+01   0.00000000000000E+00
     -3.02111230643162E-13   1.68079781160446E-11  -5.32984746519449E-11  -3.67926077665435E-11  -3.62576645202038E-13
      8.00000000000000E-01   8.00000000000000E-01   0.00000000000000E+00   3.56728130787201E-15   1.50375569579391E-13
      2.07479498483288E-17   1.53963598837112E-13   1.48355995910684E-13
      2.37500000000000E-12
      8.00000000000000E-01   8.00000000000000E-01   0.00000000000000E+00  -6.28266322474082E-16   1.43650108484586E-13
      2.07479500085991E-17   1.43042590112121E-13   1.40817227138759E-13   8.00000000000000E-01   8.00000000000000E-01
      0.00000000000000E+00  -7.37709781940587E-16   1.43415114171491E-13   2.07479499507732E-17   1.42698152339501E-13
      1.98977550532606E-13   8.00000000000000E-01   8.00000000000000E-01   0.00000000000000E+00  -9.60068413273511E-16
      1.39793255648971E-13   2.07479499169210E-17   1.38853935185615E-13   1.76066664591739E-13   0.00000000000000E+00
      0.00000000000000E+00   0.00000000000000E+00   5.40095537473827E-13   6.98292789442552E-11  -2.96965565075542E-11
      4.06728179741748E-11  -3.01640792965513E-13  -1.10000000000000E+01  -1.10000000000000E+01   0.00000000000000E+00
     -3.34835535431950E-12   1.39141012348974E-10  -1.77170835581071E-10  -4.13781785864163E-11  -3.62576645203962E-13
      8.00000000000000E-01   8.00000000000000E-01   0.00000000000000E+00   5.17545112976380E-15   2.75569735524596E-13
      2.07479498314597E-17   2.80765934604191E-13   1.48355995906370E-13
      4.06250000000000E-12
      8.00000000000000E-01   8.00000000000000E-01   0.00000000000000E+00   2.84963028011208E-15   2.32704719201711E-13
      2.07479500066177E-17   2.35575097431829E-13   1.40817227138841E-13   8.00000000000000E-01   8.00000000000000E-01
      0.00000000000000E+00   3.03671812097186E-15   2.33046273506451E-13   2.07479499607393E-17   2.36103739577384E-13
      1.98977550532688E-13   8.00000000000000E-01   8.00000000000000E-01   0.00000000000000E+00   5.02019568030584E-16
      1.53136940806749E-13   2.07479499091639E-17   1.53659708324689E-13   1.76066664591753E-13   0.00000000000000E+00
      0.00000000000000E+00   0.00000000000000E+00   4.49915229801494E-12   1.05983416903168E-09  -9.25109375991634E-10
      1.39223945338065E-10  -3.01640792779585E-13  -1.10000000000000E+01  -1.10000000000000E+01   0.00000000000000E+00
     -7.08456884523291E-11   2.10990114751580E-09  -2.18196072453328E-09  -1.42905265469802E-10  -3.62576645261615E-13
      8.00000000000000E-01   8.00000000000000E-01   0.00000000000000E+00   8.58122042591100E-14   2.97014863419420E-12
      2.07479496833278E-17   3.05598158640299E-12   1.48355995777918E-13
      6.59375000000000E-12
      8.00000000000000E-01   8.00000000000000E-01   0.00000000000000E+00   5.48715476224500E-14   2.85879955389968E-12
      2.07479500031853E-17   2.91369184947213E-12   1.40817227142247E-13   8.00000000000000E-01   8.00000000000000E-01
      0.00000000000000E+00   5.46758583097191E-14   2.86213539133920E-12   2.07479499601233E-17   2.91683199759888E-12
      1.98977550536098E-13   8.00000000000000E-01   8.00000000000000E-01   0.00000000000000E+00   8.37088833737233E-15
      5.77467090854141E-13   2.07479499139330E-17   5.85858727141427E-13   1.76066664592305E-13   0.00000000000000E+00
      0.00000000000000E+00   0.00000000000000E+00   8.96360943767296E-11   2.12260172836466E-08  -1.82316401159170E-08
      3.08401326210636E-09  -3.01640784773271E-13  -1.10000000000000E+01  -1.10000000000000E+01   0.00000000000000E+00
     -2.08936152974165E-09   4.21872084270020E-08  -4.32717517234282E-08  -3.17390482616779E-09  -3.62576647768035E-13
      8.00000000000000E-01   8.00000000000000E-01   0.00000000000000E+00   1.68175491983977E-12   8.17934058193971E-11
      2.07479406737015E-17   8.34751814871776E-11   1.48355990270659E-13
      1.03906250000000E-11
      8.00000000000000E-01   8.00000000000000E-01   0.00000000000000E+00   4.46287568546131E-13   3.58106181038803E-11
      2.07479500492305E-17   3.62569264203764E-11   1.40817227212128E-13   8.00000000000000E-01   8.00000000000000E-01
      0.00000000000000E+00   4.47270445626487E-13   3.58567358466435E-11   2.07479500012563E-17   3.63040270402200E-11
      1.98977550606072E-13   8.00000000000000E-01   8.00000000000000E-01   0.00000000000000E+00   7.07473564313027E-14
      5.85630945560451E-12   2.07479499336475E-17   5.92707755998575E-12   1.76066664603541E-13   0.00000000000000E+00
      0.00000000000000E+00   0.00000000000000E+00   7.47128559954657E-10   1.76929019859762E-07  -1.36284804669057E-07
      4.13913437506597E-08  -3.01640614857186E-13  -1.10000000000000E+01  -1.10000000000000E+01   0.00000000000000E+00
     -2.83694908112705E-08   3.50532969903745E-07  -3.64729412300421E-07  -4.25659332079467E-08  -3.62576701629465E-13
      8.00000000000000E-01   8.00000000000000E-01   0.00000000000000E+00   1.37532415300712E-11   1.08234816398855E-09
      2.07479892675689E-17   1.09610142626661E-09   1.48355874064913E-13
      1.60859375000000E-11
      8.00000000000000E-01   8.00000000000000E-01   0.00000000000000E+00   2.18354477308699E-13   8.14033808602632E-11
      2.07479500922339E-17   8.16217560855220E-11   1.40817227553417E-13   8.00000000000000E-01   8.00000000000000E-01
      0.00000000000000E+00   2.18432488722432E-13   8.15188741895397E-11   2.07479500392025E-17   8.17373274262121E-11
      1.98977550947811E-13   8.00000000000000E-01   8.00000000000000E-01   0.00000000000000E+00   3.36928095324154E-14
      1.29523869239893E-11   2.07479499304738E-17   1.29861004814717E-11   1.76066664657647E-13   0.00000000000000E+00
      0.00000000000000E+00   0.00000000000000E+00   3.98552272260032E-10   9.59132290477031E-08   4.09638701382507E-09
      1.00408168333788E-07  -3.01639745784443E-13  -1.10000000000000E+01  -1.10000000000000E+01   0.00000000000000E+00
     -6.89032130822276E-08   1.84706772409010E-07  -2.18923631525634E-07  -1.03120072198852E-07  -3.62576983293819E-13
      8.00000000000000E-01   8.00000000000000E-01   0.00000000000000E+00   7.09174498366107E-12   2.52846691533908E-09
      2.07481055711472E-17   2.53555868107084E-09   1.48355285919387E-13
      2.46289062500000E-11
      8.00000000000000E-01   8.00000000000000E-01   0.00000000000000E+00  -2.85203420797292E-15   9.74824892733237E-11
      2.07479501196657E-17   9.74796579870658E-11   1.40817228332815E-13   8.00000000000000E-01   8.00000000000000E-01
      0.00000000000000E+00  -2.72396602275970E-15   9.76356963361653E-11   2.07479500871077E-17   9.76329931180926E-11
      1.98977551727724E-13   8.00000000000000E-01   8.00000000000000E-01   0.00000000000000E+00  -6.65699633923275E-16
      1.52668498863759E-11   2.07479499320359E-17   1.52662049346919E-11   1.76066664779561E-13   0.00000000000000E+00
      0.00000000000000E+00   0.00000000000000E+00   3.36243821538923E-12   4.20811688395441E-09   1.20922604008853E-07
      1.25134083331023E-07  -3.01637743784357E-13  -1.10000000000000E+01  -1.10000000000000E+01   0.00000000000000E+00
     -8.56564624006676E-08   3.42244308310447E-10  -4.31456119371880E-08  -1.28459830029545E-07  -3.62577655716463E-13
      8.00000000000000E-01   8.00000000000000E-01   0.00000000000000E+00   2.19676462354650E-13   3.11514814527189E-09
      2.07480278150408E-17   3.11536784248227E-09   1.48353954660721E-13
      3.74433593750000E-11
      8.00000000000000E-01   8.00000000000000E-01   0.00000000000000E+00   1.21969411869531E-15   9.73360182332256E-11
      2.07479501488556E-17   9.73372586752944E-11   1.40817229587886E-13   8.00000000000000E-01   8.00000000000000E-01
      0.00000000000000E+00   1.15224007126449E-15   9.74990276860322E-11   2.07479501033746E-17   9.75002006740535E-11
      1.98977552978422E-13   8.00000000000000E-01   8.00000000000000E-01   0.00000000000000E+00   1.97331915011565E-16
      1.51082415111186E-11   2.07479499370969E-17   1.51084595909836E-11   1.76066664973767E-13   0.00000000000000E+00
      0.00000000000000E+00   0.00000000000000E+00  -5.58699160330112E-13   3.62197715439786E-09   1.21731445884167E-07
      1.25352864339404E-07  -3.01634655585828E-13  -1.10000000000000E+01  -1.10000000000000E+01   0.00000000000000E+00
     -8.51635889849038E-08  -1.56845503841686E-14  -4.36020055496247E-08  -1.28765610219079E-07  -3.62578750668763E-13
      8.00000000000000E-01   8.00000000000000E-01   0.00000000000000E+00   2.69606723282110E-13   3.20253033326273E-09
      2.07476496164624E-17   3.20279996073366E-09   1.48351958714516E-13
      5.66650390625000E-11
      8.00000000000000E-01   8.00000000000000E-01   0.00000000000000E+00  -7.39586212242784E-15   9.53375820314279E-11
      2.07479501913288E-17   9.53302069172557E-11   1.40817231458308E-13   8.00000000000000E-01   8.00000000000000E-01
      0.00000000000000E+00  -7.59175500644739E-15   9.55085365519481E-11   2.07479501349908E-17   9.55009655448917E-11
      1.98977554815282E-13   8.00000000000000E-01   8.00000000000000E-01   0.00000000000000E+00  -1.50464432206874E-15
      1.46755531790367E-11   2.07479499350834E-17   1.46740692826646E-11   1.76066665260822E-13   0.00000000000000E+00
      0.00000000000000E+00   0.00000000000000E+00  -1.20276766818843E-12   3.07307325046640E-09   1.21726545575521E-07
      1.24798416058319E-07  -3.01630368757880E-13  -1.10000000000000E+01  -1.10000000000000E+01   0.00000000000000E+00
     -8.37153241461502E-08  -1.57338046312109E-14  -4.45537491316228E-08  -1.28269089011578E-07  -3.62580373902686E-13
      8.00000000000000E-01   8.00000000000000E-01   0.00000000000000E+00   1.15638024276002E-14   3.26515612696352E-09
      2.07478895252976E-17   3.26516771151383E-09   1.48349291126156E-13
      8.54975585937500E-11
      8.00000000000000E-01   8.00000000000000E-01   0.00000000000000E+00  -1.19170910159966E-14   8.75933641677505E-11
      2.07479502027145E-17   8.75814678246847E-11   1.40817234126945E-13   8.00000000000000E-01   8.00000000000000E-01
      0.00000000000000E+00  -1.19809074569774E-14   8.77684390413909E-11   2.07479501524999E-17   8.77564788818841E-11
      1.98977557368668E-13   8.00000000000000E-01   8.00000000000000E-01   0.00000000000000E+00  -1.95433675156737E-15
      1.33410280238529E-11   2.07479499437269E-17   1.33390944350513E-11   1.76066665666477E-13   0.00000000000000E+00
      0.00000000000000E+00   0.00000000000000E+00  -2.07850533748613E-12   2.39888398763898E-09   1.21159154450381E-07
      1.23555959932683E-07  -3.01624505439922E-13  -1.10000000000000E+01  -1.10000000000000E+01   0.00000000000000E+00
     -8.12017151695186E-08  -1.57665369964545E-14  -4.57484870584909E-08  -1.26950217994546E-07  -3.62582751784437E-13
      8.00000000000000E-01   8.00000000000000E-01   0.00000000000000E+00  -1.46685012960149E-13   3.20572768498753E-09
      2.07478606868335E-17   3.20558102072243E-09   1.48345800062269E-13
      1.28746337890625E-10
      8.00000000000000E-01   8.00000000000000E-01   0.00000000000000E+00  -1.48223274117262E-14   7.16450172333522E-11
      2.07479502059517E-17   7.16302156538907E-11   1.40817237616137E-13   8.00000000000000E-01   8.00000000000000E-01
      0.00000000000000E+00  -1.48406965488337E-14   7.18185844852730E-11   2.07479501603762E-17   7.18037645366743E-11
      1.98977560792375E-13   8.00000000000000E-01   8.00000000000000E-01   0.00000000000000E+00  -2.34882338339275E-15
      1.07520306856948E-11   2.07479499421285E-17   1.07497026102614E-11   1.76066666189904E-13   0.00000000000000E+00
      0.00000000000000E+00   0.00000000000000E+00  -2.58249254587009E-12   1.65174959067897E-09   1.19586717246746E-07
      1.21235884344879E-07  -3.01616588319551E-13  -1.10000000000000E+01  -1.10000000000000E+01   0.00000000000000E+00
     -7.71157517723504E-08  -1.57847150850723E-14  -4.72344514537035E-08  -1.24350219010769E-07  -3.62586175492696E-13
      8.00000000000000E-01   8.00000000000000E-01   0.00000000000000E+00  -2.59704255005675E-13   2.96041066659698E-09
      2.07478820422612E-17   2.96015098308985E-09   1.48341299213833E-13
      1.93619506835937E-10
      8.00000000000000E-01   8.00000000000000E-01   0.00000000000000E+00  -1.55443606437004E-14   4.47822782432546E-11
      2.07479501830965E-17   4.47667546305611E-11   1.40817241440437E-13   8.00000000000000E-01   8.00000000000000E-01
      0.00000000000000E+00  -1.55737846965510E-14   4.49496746007005E-11   2.07479501492578E-17   4.49341215639541E-11
      1.98977566084918E-13   8.00000000000000E-01   8.00000000000000E-01   0.00000000000000E+00  -2.43946925362297E-15
      6.51912937987710E-12   2.07479499395143E-17   6.51671065857342E-12   1.76066666750362E-13   0.00000000000000E+00
      0.00000000000000E+00   0.00000000000000E+00  -2.84729530127696E-12   9.41411326518150E-10   1.16508852908377E-07
      1.17447416939594E-07  -3.01606037285141E-13  -1.10000000000000E+01  -1.10000000000000E+01   0.00000000000000E+00
     -7.10788552625367E-08  -1.57921292688204E-14  -4.89105334775201E-08  -1.19989404532186E-07  -3.62590981381801E-13
      8.00000000000000E-01   8.00000000000000E-01   0.00000000000000E+00  -3.19836725004917E-13   2.44608982171477E-09
      2.07480481414735E-17   2.44577000573781E-09   1.48335544391228E-13
      2.42274383544922E-10
      8.00000000000000E-01   8.00000000000000E-01   0.00000000000000E+00  -1.49853317185396E-14   2.47062547913579E-11
      2.07479501158426E-17   2.46912902075895E-11   1.40817243148286E-13   8.00000000000000E-01   8.00000000000000E-01
      0.00000000000000E+00  -1.50201742959997E-14   2.48710817571490E-11   2.07479500761053E-17   2.48560823308031E-11
      1.98977571285377E-13   8.00000000000000E-01   8.00000000000000E-01   0.00000000000000E+00  -2.24002625819986E-15
      3.40420012293802E-12   2.07479499256861E-17   3.40198084462974E-12   1.76066666989019E-13   0.00000000000000E+00
      0.00000000000000E+00   0.00000000000000E+00  -2.94254004931708E-12   6.21084757526788E-10   1.13917999599148E-07
      1.14536141816625E-07  -3.01598890112031E-13  -1.10000000000000E+01  -1.10000000000000E+01   0.00000000000000E+00
     -6.68206200692795E-08  -1.57933762352578E-14  -4.97852391558568E-08  -1.16605875018513E-07  -3.62594335614051E-13
      8.00000000000000E-01   8.00000000000000E-01   0.00000000000000E+00  -3.31188757428647E-13   2.01711501651394E-09
      2.07479368608671E-17   2.01678384850445E-09   1.48331744303398E-13
      3.15256698608398E-10
      8.00000000000000E-01   8.00000000000000E-01   0.00000000000000E+00  -1.33370163713284E-14  -3.24935641061335E-12
      2.07479500445981E-17  -3.26267267903463E-12   1.40817243925973E-13   8.00000000000000E-01   8.00000000000000E-01
      0.00000000000000E+00  -1.33285486058966E-14  -3.08225588402985E-12   2.07479500079862E-17  -3.09556368468574E-12
      1.98977583603349E-13   8.00000000000000E-01   8.00000000000000E-01   0.00000000000000E+00  -1.91695243724249E-15
     -8.91203307275848E-13   2.07479499181606E-17  -8.93099511763172E-13   1.76066667071298E-13   0.00000000000000E+00
      0.00000000000000E+00   0.00000000000000E+00  -3.10179221852687E-12   3.33055948964381E-10   1.09758221706287E-07
      1.10088175863032E-07  -3.01589095094405E-13  -1.10000000000000E+01  -1.10000000000000E+01   0.00000000000000E+00
     -6.08305405274298E-08  -1.57939673429564E-14  -5.06179219863979E-08  -1.11448478307795E-07  -3.62598992509739E-13
      8.00000000000000E-01   8.00000000000000E-01   0.00000000000000E+00  -3.25443279108111E-13   1.36787920316906E-09
      2.07479913041778E-17   1.36755378063794E-09   1.48326593003524E-13
      3.69993434906006E-10
      8.00000000000000E-01   8.00000000000000E-01   0.00000000000000E+00  -1.18124524274579E-14  -2.18886776617362E-11
      2.07479500044690E-17  -2.19004693662136E-11   1.40817243219509E-13   8.00000000000000E-01   8.00000000000000E-01
      0.00000000000000E+00  -1.17988354002258E-14  -2.17157011859063E-11   2.07479500135418E-17  -2.17274792733565E-11
      1.98977597902975E-13   8.00000000000000E-01   8.00000000000000E-01   0.00000000000000E+00  -1.90154881712551E-15
     -3.73015716892822E-12   2.07479499176334E-17  -3.73203796979542E-12   1.76066666935227E-13   0.00000000000000E+00
      0.00000000000000E+00   0.00000000000000E+00  -3.19974958630604E-12   2.10745081590407E-10   1.06460264800709E-07
      1.06667810132713E-07  -3.01582352219162E-13  -1.10000000000000E+01  -1.10000000000000E+01   0.00000000000000E+00
     -5.65665067704543E-08  -1.57941384896956E-14  -5.09510050544439E-08  -1.07517527619037E-07  -3.62602205125283E-13
      8.00000000000000E-01   8.00000000000000E-01   0.00000000000000E+00  -3.09972344622265E-13   8.97387424529892E-10
      2.07479729681755E-17   8.97077472933242E-10   1.48323049286733E-13
      4.52098539352417E-10
      8.00000000000000E-01   8.00000000000000E-01   0.00000000000000E+00  -9.31556434326633E-15  -4.53879270201965E-11
      2.07479499263595E-17  -4.53972218365899E-11   1.40817240396041E-13   8.00000000000000E-01   8.00000000000000E-01
      0.00000000000000E+00  -9.30491475033561E-15  -4.52030096129729E-11   2.07479497932128E-17  -4.52122937797735E-11
      1.98977629423751E-13   8.00000000000000E-01   8.00000000000000E-01   0.00000000000000E+00  -1.50704381735627E-15
     -7.27809067237279E-12   2.07479499062637E-17  -7.27957696824024E-12   1.76066666463152E-13   0.00000000000000E+00
      0.00000000000000E+00   0.00000000000000E+00  -3.33539237890153E-12   1.06222659631750E-10   1.01280354548883E-07
      1.01383241816135E-07  -3.01573012951608E-13  -1.10000000000000E+01  -1.10000000000000E+01   0.00000000000000E+00
     -5.04034012480482E-08  -1.57943221484031E-14  -5.11277338335185E-08  -1.01531150875889E-07  -3.62606595718344E-13
      8.00000000000000E-01   8.00000000000000E-01   0.00000000000000E+00  -2.75924745683775E-13   2.46074056335512E-10
      2.07480022550077E-17   2.45798152337831E-10   1.48318072387005E-13
      5.13677367687225E-10
      8.00000000000000E-01   8.00000000000000E-01   0.00000000000000E+00  -7.39966375650392E-15  -5.92874608695250E-11
      2.07479498860072E-17  -5.92948397853316E-11   1.40817237118987E-13   8.00000000000000E-01   8.00000000000000E-01
      0.00000000000000E+00  -7.45536231844142E-15  -5.90942761064713E-11   2.07479498810625E-17  -5.91017107208398E-11
      1.98977661307863E-13   8.00000000000000E-01   8.00000000000000E-01   0.00000000000000E+00  -1.20173786734039E-15
     -9.35372002852323E-12   2.07479498906357E-17  -9.35490101844068E-12   1.76066665934389E-13   0.00000000000000E+00
      0.00000000000000E+00   0.00000000000000E+00  -3.41530934963785E-12   6.43346725909115E-11   9.72425954001103E-08
      9.73035147633515E-08  -3.01566527125577E-13  -1.10000000000000E+01  -1.10000000000000E+01   0.00000000000000E+00
     -4.59136307292336E-08  -1.57944373285044E-14  -5.10745863908828E-08  -9.69882329145538E-08  -3.62609561019495E-13
      8.00000000000000E-01   8.00000000000000E-01   0.00000000000000E+00  -2.44277062155635E-13  -1.87286140959014E-10
      2.07479728306623E-17  -1.87530397273196E-10   1.48314523783834E-13
      5.59861488938332E-10
      8.00000000000000E-01   8.00000000000000E-01   0.00000000000000E+00  -5.92642372991399E-15  -6.75807144862401E-11
      2.07479498657194E-17  -6.75866201620202E-11   1.40817234145422E-13   8.00000000000000E-01   8.00000000000000E-01
      0.00000000000000E+00  -5.93679887142496E-15  -6.73835698426113E-11   2.07479496705551E-17  -6.73894858935330E-11
      1.98977689685140E-13   8.00000000000000E-01   8.00000000000000E-01   0.00000000000000E+00  -1.00473531761268E-15
     -1.05790609095374E-11   2.07479498897269E-17  -1.05800448969052E-11   1.76066665460918E-13   0.00000000000000E+00
      0.00000000000000E+00   0.00000000000000E+00  -3.47513511645868E-12   4.44135125465753E-11   9.41446934513824E-08
      9.41856318288125E-08  -3.01561915482648E-13  -1.10000000000000E+01  -1.10000000000000E+01   0.00000000000000E+00
     -4.26036888407991E-08  -1.57945159445199E-14  -5.09600725848005E-08  -9.35637772201155E-08  -3.62611604978092E-13
      8.00000000000000E-01   8.00000000000000E-01   0.00000000000000E+00  -2.18043881914406E-13  -4.76080434610625E-10
      2.07479466141917E-17  -4.76298457744593E-10   1.48311931169261E-13
      6.29137670814991E-10
      8.00000000000000E-01   8.00000000000000E-01   0.00000000000000E+00  -3.74850404765992E-15  -7.66647471119293E-11
      2.07479498198137E-17  -7.66684748680271E-11   1.40817229069627E-13   8.00000000000000E-01   8.00000000000000E-01
      0.00000000000000E+00  -3.76155054767858E-15  -7.64679493071782E-11   2.07479499702628E-17  -7.64716901097759E-11
      1.98977738721741E-13   8.00000000000000E-01   8.00000000000000E-01   0.00000000000000E+00  -5.21999267099903E-16
     -1.18995306404216E-11   2.07479498794118E-17  -1.19000318917388E-11   1.76066664660239E-13   0.00000000000000E+00
      0.00000000000000E+00   0.00000000000000E+00  -3.55620719507204E-12   2.54967137544034E-11   8.94089703208192E-08
      8.94309108273785E-08  -3.01555364169764E-13  -1.10000000000000E+01  -1.10000000000000E+01   0.00000000000000E+00
     -3.77195841093096E-08  -1.57946224020148E-14  -5.07006167353015E-08  -8.84202166392335E-08  -3.62614386944311E-13
      8.00000000000000E-01   8.00000000000000E-01   0.00000000000000E+00  -1.75969627833019E-13  -8.45478042395397E-10
      2.07479138962966E-17  -8.45653991275316E-10   1.48308118662466E-13
      7.33051943629980E-10
      8.00000000000000E-01   8.00000000000000E-01   0.00000000000000E+00  -8.98749142855046E-16  -8.31838174522187E-11
      2.07479497744382E-17  -8.31846954534118E-11   1.40817220617134E-13   8.00000000000000E-01   8.00000000000000E-01
      0.00000000000000E+00  -9.34544396508161E-16  -8.30061380891703E-11   2.07479492360535E-17  -8.30070518856175E-11
      1.98977824478816E-13   8.00000000000000E-01   8.00000000000000E-01   0.00000000000000E+00  -1.11563532667960E-16
     -1.27929210413268E-11   2.07479498686121E-17  -1.27930118569096E-11   1.76066663339604E-13   0.00000000000000E+00
      0.00000000000000E+00   0.00000000000000E+00  -3.60574648914047E-12   1.10393420344124E-11   8.21629944784232E-08
      8.21704280739685E-08  -3.01546294158446E-13  -1.10000000000000E+01  -1.10000000000000E+01   0.00000000000000E+00
     -3.05706627804158E-08  -1.57947573826955E-14  -5.01734977120447E-08  -8.07441762872179E-08  -3.62617934139340E-13
      8.00000000000000E-01   8.00000000000000E-01   0.00000000000000E+00  -1.09677666802787E-13  -1.24715737063580E-09
      2.07479366313357E-17  -1.24726702755466E-09   1.48302519862233E-13
      8.10987648241222E-10
      8.00000000000000E-01   8.00000000000000E-01   0.00000000000000E+00   9.95981945415939E-16  -8.29939571613534E-11
      2.07479497738243E-17  -8.29929404314583E-11   1.40817214042352E-13   8.00000000000000E-01   8.00000000000000E-01
      0.00000000000000E+00   9.71280801085138E-16  -8.28461217464794E-11   2.07479500206901E-17  -8.28451297177283E-11
      1.98977896394965E-13   8.00000000000000E-01   8.00000000000000E-01   0.00000000000000E+00   1.47483233855100E-16
     -1.26922320757671E-11   2.07479498715732E-17  -1.26920638445834E-11   1.76066662319839E-13   0.00000000000000E+00
      0.00000000000000E+00   0.00000000000000E+00  -3.61716714916126E-12   5.98729447539034E-12   7.66651741789193E-08
      7.66675443062455E-08  -3.01540051227486E-13  -1.10000000000000E+01  -1.10000000000000E+01   0.00000000000000E+00
     -2.53584327667756E-08  -1.57948398608963E-14  -4.97051079611862E-08  -7.50635565228017E-08  -3.62620113109880E-13
      8.00000000000000E-01   8.00000000000000E-01   0.00000000000000E+00  -5.92942101841831E-14  -1.42539837598769E-09
      2.07479488460867E-17  -1.42545764944993E-09   1.48298391580208E-13
      9.27891205158085E-10
      8.00000000000000E-01   8.00000000000000E-01   0.00000000000000E+00   3.32000564875345E-15  -7.59531353189791E-11
      2.07479497690802E-17  -7.59497945653805E-11   1.40817204591929E-13   8.00000000000000E-01   8.00000000000000E-01
      0.00000000000000E+00   3.31175206216850E-15  -7.58687380985987E-11   2.07479495860033E-17  -7.58654055985870E-11
      1.98978012574014E-13   8.00000000000000E-01   8.00000000000000E-01   0.00000000000000E+00   5.20423559515042E-16
     -1.15262346570582E-11   2.07479498790197E-17  -1.15256934855488E-11   1.76066660862725E-13   0.00000000000000E+00
      0.00000000000000E+00   0.00000000000000E+00  -3.57918168580021E-12   2.36140526696908E-12   6.84322468755714E-08
      6.84310290991526E-08  -3.01531538474168E-13  -1.10000000000000E+01  -1.10000000000000E+01   0.00000000000000E+00
     -1.78315331413647E-08  -1.57949348485597E-14  -4.89345835295915E-08  -6.67661324658911E-08  -3.62622635675558E-13
      8.00000000000000E-01   8.00000000000000E-01   0.00000000000000E+00   1.06049462421462E-14  -1.50156636530623E-09
      2.07479687913145E-17  -1.50155573961202E-09   1.48292296121059E-13
      1.01556887284573E-09
      8.00000000000000E-01   8.00000000000000E-01   0.00000000000000E+00   4.63257743977620E-15  -6.64243434785116E-11
      2.07479497681314E-17  -6.64196901531220E-11   1.40817198255231E-13   8.00000000000000E-01   8.00000000000000E-01
      0.00000000000000E+00   4.59328950374803E-15  -6.63940201761317E-11   2.07479498532843E-17  -6.63894061386781E-11
      1.98978104074510E-13   8.00000000000000E-01   8.00000000000000E-01   0.00000000000000E+00   7.10946010514115E-16
     -1.00190524653872E-11   2.07479498788699E-17  -1.00183207714268E-11   1.76066659891031E-13   0.00000000000000E+00
      0.00000000000000E+00   0.00000000000000E+00  -3.50358976473671E-12   1.19528741695533E-12   6.23554831836313E-08
      6.23531748812835E-08  -3.01525801779099E-13  -1.10000000000000E+01  -1.10000000000000E+01   0.00000000000000E+00
     -1.24659058250412E-08  -1.57949844888049E-14  -4.83232008021047E-08  -6.07891224221304E-08  -3.62623962844538E-13
      8.00000000000000E-01   8.00000000000000E-01   0.00000000000000E+00   5.63069382587205E-14  -1.42128136977580E-09