DF-ISE text

Info {
  version   = 1.0
  type      = xyplot
  datasets  = [
    "time"
    "Ntop_0_1 OuterVoltage" "Ntop_0_1 InnerVoltage" "Ntop_0_1 QuasiFermiPotential" "Ntop_0_1 DisplacementCurrent" "Ntop_0_1 eCurrent"
    "Ntop_0_1 hCurrent" "Ntop_0_1 TotalCurrent" "Ntop_0_1 Charge" "Ntop_1_0 OuterVoltage" "Ntop_1_0 InnerVoltage"
    "Ntop_1_0 QuasiFermiPotential" "Ntop_1_0 DisplacementCurrent" "Ntop_1_0 eCurrent" "Ntop_1_0 hCurrent" "Ntop_1_0 TotalCurrent"
    "Ntop_1_0 Charge" "Ntop_1_1 OuterVoltage" "Ntop_1_1 InnerVoltage" "Ntop_1_1 QuasiFermiPotential" "Ntop_1_1 DisplacementCurrent"
    "Ntop_1_1 eCurrent" "Ntop_1_1 hCurrent" "Ntop_1_1 TotalCurrent" "Ntop_1_1 Charge" "Ptop OuterVoltage"
    "Ptop InnerVoltage" "Ptop QuasiFermiPotential" "Ptop DisplacementCurrent" "Ptop eCurrent" "Ptop hCurrent"
    "Ptop TotalCurrent" "Ptop Charge" "Pbot OuterVoltage" "Pbot InnerVoltage" "Pbot QuasiFermiPotential"
    "Pbot DisplacementCurrent" "Pbot eCurrent" "Pbot hCurrent" "Pbot TotalCurrent" "Pbot Charge"
    "Ntop_0_0 OuterVoltage" "Ntop_0_0 InnerVoltage" "Ntop_0_0 QuasiFermiPotential" "Ntop_0_0 DisplacementCurrent" "Ntop_0_0 eCurrent"
    "Ntop_0_0 hCurrent" "Ntop_0_0 TotalCurrent" "Ntop_0_0 Charge" ]
  functions = [
    Time
    OuterVoltage InnerVoltage QuasiFermiPotential DisplacementCurrent eCurrent
    hCurrent TotalCurrent Charge OuterVoltage InnerVoltage
    QuasiFermiPotential DisplacementCurrent eCurrent hCurrent TotalCurrent
    Charge OuterVoltage InnerVoltage QuasiFermiPotential DisplacementCurrent
    eCurrent hCurrent TotalCurrent Charge OuterVoltage
    InnerVoltage QuasiFermiPotential DisplacementCurrent eCurrent hCurrent
    TotalCurrent Charge OuterVoltage InnerVoltage QuasiFermiPotential
    DisplacementCurrent eCurrent hCurrent TotalCurrent Charge
    OuterVoltage InnerVoltage QuasiFermiPotential DisplacementCurrent eCurrent
    hCurrent TotalCurrent Charge ]
}

Data {
      1.00000000000000E-09
      8.00000000000000E-01   8.00000000000000E-01   0.00000000000000E+00   2.64059946732880E-16   2.44695720551982E-11
      2.07453379461094E-17   2.44698568604829E-11   1.37334181783846E-13   8.00000000000000E-01   8.00000000000000E-01
      0.00000000000000E+00   2.68435128088381E-16   2.45885669792503E-11   2.07453379408832E-17   2.45888561597164E-11
      1.95897019424246E-13   8.00000000000000E-01   8.00000000000000E-01   0.00000000000000E+00   3.82322264449876E-17
      3.64377925048620E-12   2.07453377995700E-17   3.64383822805045E-12   1.72746745697528E-13   0.00000000000000E+00
      0.00000000000000E+00   0.00000000000000E+00   2.92002770234021E-12   1.67632375237727E-09   3.83618266934255E-08
      4.00410704735051E-08  -3.75829230219129E-13  -7.00000000000000E+00  -7.00000000000000E+00   0.00000000000000E+00
     -2.03955205798031E-08   2.49632327165842E-09  -2.35434881865504E-08  -4.14426854946951E-08  -2.75004457661858E-13
      8.00000000000000E-01   8.00000000000000E-01   0.00000000000000E+00   5.06971866935781E-14   1.34886175200957E-09
      2.07453039984671E-17   1.34891246994156E-09   1.44855740975369E-13
      1.37500000000000E-09
      8.00000000000000E-01   8.00000000000000E-01   0.00000000000000E+00  -4.09977227426876E-15  -2.58735814168128E-12
      2.07453378902178E-17  -2.59143716861766E-12   1.37334186309500E-13   8.00000000000000E-01   8.00000000000000E-01
      0.00000000000000E+00  -4.10978201908185E-15  -2.45125299269667E-12   2.07453380229442E-17  -2.45534202937773E-12
      1.95897004895794E-13   8.00000000000000E-01   8.00000000000000E-01   0.00000000000000E+00  -6.21342359519878E-16
     -5.71909031461199E-13   2.07453377908127E-17  -5.72509628482928E-13   1.72746746492547E-13   0.00000000000000E+00
      0.00000000000000E+00   0.00000000000000E+00  -1.03771321033452E-12   9.75474342998252E-11   4.27250498862713E-08
      4.28215596073608E-08  -3.75809368968884E-13  -7.00000000000000E+00  -7.00000000000000E+00   0.00000000000000E+00
     -1.79754827956990E-08  -1.24098125267113E-14  -2.56649377341019E-08  -4.36404329396134E-08  -2.75011856586263E-13
      8.00000000000000E-01   8.00000000000000E-01   0.00000000000000E+00  -1.12467989230982E-13   8.24605068322997E-10
      2.07453232835326E-17   8.24492621079089E-10   1.44843287857306E-13
      1.44531250000000E-09
      8.00000000000000E-01   8.00000000000000E-01   0.00000000000000E+00  -3.65204490814175E-15  -9.97072251211555E-12
      2.07453378700605E-17  -9.97435381168582E-12   1.37334185852157E-13   8.00000000000000E-01   8.00000000000000E-01
      0.00000000000000E+00  -3.61879224081898E-15  -9.83870818459361E-12   2.07453377146059E-17  -9.84230623149671E-12
      1.95897005180925E-13   8.00000000000000E-01   8.00000000000000E-01   0.00000000000000E+00  -6.10989185124889E-16
     -1.68744920737555E-12   2.07453377876849E-17  -1.68803945122289E-12   1.72746746405713E-13   0.00000000000000E+00
      0.00000000000000E+00   0.00000000000000E+00  -1.06272802986912E-12   5.34860304098574E-11   4.13081461464455E-08
      4.13605694488255E-08  -3.75806132213667E-13  -7.00000000000000E+00  -7.00000000000000E+00   0.00000000000000E+00
     -1.63596121085715E-08  -1.24573257567198E-14  -2.55940645457632E-08  -4.19536891116604E-08  -2.75013063515153E-13
      8.00000000000000E-01   8.00000000000000E-01   0.00000000000000E+00  -1.07721276184113E-13   6.14732062860228E-10
      2.07453227427513E-17   6.14624362329366E-10   1.44841258290024E-13
      1.49804687500000E-09
      8.00000000000000E-01   8.00000000000000E-01   0.00000000000000E+00  -3.20210565476984E-15  -1.48612167017869E-11
      2.07453378556503E-17  -1.48643980621038E-11   1.37334185185436E-13   8.00000000000000E-01   8.00000000000000E-01
      0.00000000000000E+00  -3.17358533250631E-15  -1.47329812731464E-11   2.07453378246556E-17  -1.47361341131410E-11
      1.95897006822589E-13   8.00000000000000E-01   8.00000000000000E-01   0.00000000000000E+00  -6.79697630046018E-16
     -2.41928426011280E-12   2.07453377857106E-17  -2.41994321240506E-12   1.72746746280207E-13   0.00000000000000E+00
      0.00000000000000E+00   0.00000000000000E+00  -1.08682948282217E-12   3.43265527424013E-11   4.02139458583989E-08
      4.02471855816584E-08  -3.75803840971874E-13  -7.00000000000000E+00  -7.00000000000000E+00   0.00000000000000E+00
     -1.51829366165745E-08  -1.24668209156029E-14  -2.54979441404089E-08  -4.06808932238043E-08  -2.75013895137211E-13
      8.00000000000000E-01   8.00000000000000E-01   0.00000000000000E+00  -1.00995601473872E-13   4.65829092389541E-10
      2.07453274972208E-17   4.65728117533395E-10   1.44839797820854E-13
      1.57714843750000E-09
      8.00000000000000E-01   8.00000000000000E-01   0.00000000000000E+00  -2.53539945355980E-15  -2.10026340453602E-11
      2.07453378361932E-17  -2.10051486994760E-11   1.37334183745405E-13   8.00000000000000E-01   8.00000000000000E-01
      0.00000000000000E+00  -2.55474008837396E-15  -2.08813918053058E-11   2.07453380391854E-17  -2.08839258000561E-11
      1.95897012008267E-13   8.00000000000000E-01   8.00000000000000E-01   0.00000000000000E+00  -3.98298386402909E-16
     -3.32843128060578E-12   2.07453377825300E-17  -3.32880883365440E-12   1.72746746008527E-13   0.00000000000000E+00
      0.00000000000000E+00   0.00000000000000E+00  -1.09790501874895E-12   1.76332648017873E-11   3.85385132821026E-08
      3.85550486418856E-08  -3.75800585810590E-13  -7.00000000000000E+00  -7.00000000000000E+00   0.00000000000000E+00
     -1.34711361751264E-08  -1.24710367944143E-14  -2.53014898909449E-08  -3.87726385371081E-08  -2.75015028218580E-13
      8.00000000000000E-01   8.00000000000000E-01   0.00000000000000E+00  -8.86037824054947E-14   2.62896361592640E-10
      2.07453407948043E-17   2.62807778555575E-10   1.44837672266973E-13
      1.63647460937500E-09
      8.00000000000000E-01   8.00000000000000E-01   0.00000000000000E+00  -1.98540204056912E-15  -2.46455617843410E-11
      2.07453378236303E-17  -2.46475264410438E-11   1.37334182376423E-13   8.00000000000000E-01   8.00000000000000E-01
      0.00000000000000E+00  -1.99017190339306E-15  -2.45308021406808E-11   2.07453374544666E-17  -2.45327715672467E-11
      1.95897018192255E-13   8.00000000000000E-01   8.00000000000000E-01   0.00000000000000E+00  -2.75532287461959E-16
     -3.86020818053029E-12   2.07453377806745E-17  -3.86046296747997E-12   1.72746745749335E-13   0.00000000000000E+00
      0.00000000000000E+00   0.00000000000000E+00  -1.11510361486878E-12   1.08022153148335E-11   3.72638254801327E-08
      3.72735125918326E-08  -3.75798271015702E-13  -7.00000000000000E+00  -7.00000000000000E+00   0.00000000000000E+00
     -1.22272458026540E-08  -1.24717070852651E-14  -2.51221040138495E-08  -3.73493622882106E-08  -2.75015790426896E-13
      8.00000000000000E-01   8.00000000000000E-01   0.00000000000000E+00  -7.82950223541742E-14   1.28968731630889E-10
      2.07453366917268E-17   1.28890457353871E-10   1.44836115124587E-13
      1.72546386718750E-09
      8.00000000000000E-01   8.00000000000000E-01   0.00000000000000E+00  -1.25673172462143E-15  -2.86005892513987E-11
      2.07453378086076E-17  -2.86018252377856E-11   1.37334179981103E-13   8.00000000000000E-01   8.00000000000000E-01
      0.00000000000000E+00  -1.27492499971705E-15  -2.84979385282286E-11   2.07453376783446E-17  -2.84991927078907E-11
      1.95897031226447E-13   8.00000000000000E-01   8.00000000000000E-01   0.00000000000000E+00  -1.66759900976094E-16
     -4.42538684322373E-12   2.07453377783973E-17  -4.42553285778692E-12   1.72746745293953E-13   0.00000000000000E+00
      0.00000000000000E+00   0.00000000000000E+00  -1.11652741859344E-12   5.16375268169264E-12   3.53382995137303E-08
      3.53423467389934E-08  -3.75794978582819E-13  -7.00000000000000E+00  -7.00000000000000E+00   0.00000000000000E+00
     -1.04235748242075E-08  -1.24719812658843E-14  -2.48167341512574E-08  -3.52403214474462E-08  -2.75016797983845E-13
      8.00000000000000E-01   8.00000000000000E-01   0.00000000000000E+00  -6.24050427327083E-14  -4.04363564463843E-11
      2.07453402757151E-17  -4.04987407437767E-11   1.44833820065161E-13
      1.79220581054688E-09
      8.00000000000000E-01   8.00000000000000E-01   0.00000000000000E+00  -7.53946863482997E-16  -3.04398933808113E-11
      2.07453378002396E-17  -3.04406265823369E-11   1.37334177993703E-13   8.00000000000000E-01   8.00000000000000E-01
      0.00000000000000E+00  -7.34694735285257E-16  -3.03483512019798E-11   2.07453376335798E-17  -3.03490651513775E-11
      1.95897043881708E-13   8.00000000000000E-01   8.00000000000000E-01   0.00000000000000E+00  -7.57276641603964E-17
     -4.67712170829915E-12   2.07453377772928E-17  -4.67717669062553E-12   1.72746744914623E-13   0.00000000000000E+00
      0.00000000000000E+00   0.00000000000000E+00  -1.11401967794568E-12   3.00174331051053E-12   3.38921866851084E-08
      3.38940744087410E-08  -3.75792640740341E-13  -7.00000000000000E+00  -7.00000000000000E+00   0.00000000000000E+00
     -9.11947652530042E-09  -1.24720338138391E-14  -2.45667032362427E-08  -3.36861922335769E-08  -2.75017450035068E-13
      8.00000000000000E-01   8.00000000000000E-01   0.00000000000000E+00  -5.04780533839037E-14  -1.42364849431792E-10
      2.07453354517118E-17  -1.42415306739840E-10   1.44832123985376E-13
      1.89231872558594E-09
      8.00000000000000E-01   8.00000000000000E-01   0.00000000000000E+00  -6.37533780447040E-17  -3.15611373964578E-11
      2.07453377923451E-17  -3.15611804044981E-11   1.37334174860828E-13   8.00000000000000E-01   8.00000000000000E-01
      0.00000000000000E+00  -5.75980396677172E-17  -3.14894191560049E-11   2.07453379869683E-17  -3.14894560087066E-11
      1.95897067172803E-13   8.00000000000000E-01   8.00000000000000E-01   0.00000000000000E+00   2.15454237315050E-17
     -4.80679792712336E-12   2.07453377761681E-17  -4.80675563636185E-12   1.72746744314246E-13   0.00000000000000E+00
      0.00000000000000E+00   0.00000000000000E+00  -1.10154607682632E-12   1.32005683456060E-12   3.17351589776583E-08
      3.17353774884161E-08  -3.75789331186981E-13  -7.00000000000000E+00  -7.00000000000000E+00   0.00000000000000E+00
     -7.24198435976695E-09  -1.24720761732055E-14  -2.41699226469727E-08  -3.14119194788158E-08  -2.75018268623702E-13
      8.00000000000000E-01   8.00000000000000E-01   0.00000000000000E+00  -3.31451958600077E-14  -2.55567493099975E-10
      2.07453449041412E-17  -2.55600617550491E-10   1.44829613462809E-13
      2.04248809814453E-09
      8.00000000000000E-01   8.00000000000000E-01   0.00000000000000E+00   7.65921412360699E-16  -3.01009367809434E-11
      2.07453377897212E-17  -3.01001501141932E-11   1.37334170178888E-13   8.00000000000000E-01   8.00000000000000E-01
      0.00000000000000E+00   6.74340567801179E-16  -3.00646815483231E-11   2.07453373872362E-17  -3.00639864624179E-11
      1.95897110754036E-13   8.00000000000000E-01   8.00000000000000E-01   0.00000000000000E+00   1.09526065209060E-16
     -4.53023461912238E-12   2.07453377760595E-17  -4.53010434771940E-12   1.72746743411701E-13   0.00000000000000E+00
      0.00000000000000E+00   0.00000000000000E+00  -1.06444722876516E-12   3.68888514741893E-13   2.85604198046395E-08
      2.85597242459255E-08  -3.75784787291725E-13  -7.00000000000000E+00  -7.00000000000000E+00   0.00000000000000E+00
     -4.60673560730477E-09  -1.24721149188798E-14  -2.35468960212151E-08  -2.81536441006348E-08  -2.75019156857281E-13
      8.00000000000000E-01   8.00000000000000E-01   0.00000000000000E+00  -9.27149738863335E-15  -3.41376653614405E-10
      2.07453352658145E-17  -3.41385904366458E-10   1.44825919804382E-13
      2.15511512756348E-09
      8.00000000000000E-01   8.00000000000000E-01   0.00000000000000E+00   1.22819355970409E-15  -2.70072465708299E-11
      2.07453377939809E-17  -2.70059976319324E-11   1.37334166934795E-13   8.00000000000000E-01   8.00000000000000E-01
      0.00000000000000E+00   1.25030347443913E-15  -2.70000313558858E-11   2.07453374601216E-17  -2.69987603070739E-11
      1.95897149379493E-13   8.00000000000000E-01   8.00000000000000E-01   0.00000000000000E+00   1.86200564882545E-16
     -4.02639528695392E-12   2.07453377768501E-17  -4.02618834105126E-12   1.72746742782020E-13   0.00000000000000E+00
      0.00000000000000E+00   0.00000000000000E+00  -1.02806922635425E-12   1.47002165076057E-13   2.62520924607846E-08
      2.62512113937233E-08  -3.75781695482915E-13  -7.00000000000000E+00  -7.00000000000000E+00   0.00000000000000E+00
     -2.77758341338419E-09  -1.24721325018005E-14  -2.30696755753368E-08  -2.58472714608535E-08  -2.75019572068170E-13
      8.00000000000000E-01   8.00000000000000E-01   0.00000000000000E+00   6.35380518766393E-15  -3.45915361140263E-10
      2.07453383878455E-17  -3.45908986589736E-10   1.44823208454778E-13
      2.32405567169189E-09
      8.00000000000000E-01   8.00000000000000E-01   0.00000000000000E+00   1.69289011135062E-15  -2.01620663044394E-11
      2.07453378080150E-17  -2.01603526689902E-11   1.37334162906559E-13   8.00000000000000E-01   8.00000000000000E-01
      0.00000000000000E+00   1.68665402452105E-15  -2.01964903535070E-11   2.07453377316125E-17  -2.01947829541447E-11
      1.95897215183632E-13   8.00000000000000E-01   8.00000000000000E-01   0.00000000000000E+00   2.59238445279213E-16
     -2.94907781411614E-12   2.07453377789179E-17  -2.94879783033309E-12   1.72746741992383E-13   0.00000000000000E+00
      0.00000000000000E+00   0.00000000000000E+00  -9.60524700019954E-13   3.36451574451118E-14   2.29544086094993E-08
      2.29534817299568E-08  -3.75777536921835E-13  -7.00000000000000E+00  -7.00000000000000E+00   0.00000000000000E+00
     -2.82835643268732E-10  -1.24721427726220E-14  -2.23533300301537E-08  -2.26361781455652E-08  -2.75019828361878E-13
      8.00000000000000E-01   8.00000000000000E-01   0.00000000000000E+00   2.47556900342492E-14  -2.74024427373370E-10
      2.07453351672756E-17  -2.73999650938001E-10   1.44819245201138E-13
      2.57746648788452E-09
      8.00000000000000E-01   8.00000000000000E-01   0.00000000000000E+00   1.95050509818247E-15  -7.35633931775186E-12
      2.07453378398697E-17  -7.35436806731583E-12   1.37334159368394E-13   8.00000000000000E-01   8.00000000000000E-01
      0.00000000000000E+00   1.94055410023046E-15  -7.43524291879853E-12   2.07453373302088E-17  -7.43328161936097E-12
      1.95897327690073E-13   8.00000000000000E-01   8.00000000000000E-01   0.00000000000000E+00   2.83015961126024E-16
     -9.75553062439342E-13   2.07453377840409E-17  -9.75249301140432E-13   1.72746741277716E-13   0.00000000000000E+00
      0.00000000000000E+00   0.00000000000000E+00  -8.34240287683320E-13   1.17311987380042E-15   1.84887763197781E-08
      1.84879432526103E-08  -3.75772291323927E-13  -7.00000000000000E+00  -7.00000000000000E+00   0.00000000000000E+00
      2.86906888581955E-09  -1.24721267030350E-14  -2.12975612742899E-08  -1.84285048605970E-08  -2.75019492786103E-13
      8.00000000000000E-01   8.00000000000000E-01   0.00000000000000E+00   4.12301635475729E-14  -4.37167439342890E-11
      2.07453358378252E-17  -4.36754930254055E-11   1.44813555773849E-13
      2.76752460002899E-09
      8.00000000000000E-01   8.00000000000000E-01   0.00000000000000E+00   1.85669648701092E-15   2.55389519539782E-12
      2.07453378673686E-17   2.55577263722270E-12   1.37334158894962E-13   8.00000000000000E-01   8.00000000000000E-01
      0.00000000000000E+00   1.85420470569836E-15   2.46173598890391E-12   2.07453387880882E-17   2.46361093894840E-12
      1.95897419903923E-13   8.00000000000000E-01   8.00000000000000E-01   0.00000000000000E+00   2.79722815317169E-16
      5.33524728549800E-13   2.07453377881914E-17   5.33825196702905E-13   1.72746741154099E-13   0.00000000000000E+00
      0.00000000000000E+00   0.00000000000000E+00  -7.21780745585645E-13  -9.23031161156887E-16   1.55893983608164E-08
      1.55886756570397E-08  -3.75769056261813E-13  -7.00000000000000E+00  -7.00000000000000E+00   0.00000000000000E+00
      4.75476631842762E-09  -1.24720939287140E-14  -2.05285794512618E-08  -1.57738256049281E-08  -2.75018764949879E-13
      8.00000000000000E-01   8.00000000000000E-01   0.00000000000000E+00   4.55028878574688E-14   1.79551215482307E-10
      2.07453385230979E-17   1.79596739115503E-10   1.44809501258708E-13
      2.91006818413734E-09
      8.00000000000000E-01   8.00000000000000E-01   0.00000000000000E+00   1.67316273037232E-15   9.41451761167462E-12
      2.07453378876346E-17   9.41621151974288E-12   1.37334159738411E-13   8.00000000000000E-01   8.00000000000000E-01
      0.00000000000000E+00   1.67856011548802E-15   9.32339579067750E-12   2.07453373786623E-17   9.32509509613037E-12
      1.95897491767401E-13   8.00000000000000E-01   8.00000000000000E-01   0.00000000000000E+00   2.52452528278724E-16
      1.57183848828291E-12   2.07453377913243E-17   1.57211168614898E-12   1.72746741289552E-13   0.00000000000000E+00
      0.00000000000000E+00   0.00000000000000E+00  -6.34960393323441E-13  -1.26317823916337E-15   1.36924705354238E-08
      1.36918343118522E-08  -3.75766970960182E-13  -7.00000000000000E+00  -7.00000000000000E+00   0.00000000000000E+00
      5.90253705530335E-09  -1.24720600152120E-14  -1.99662943764457E-08  -1.40637697932024E-08  -2.75018004022197E-13
      8.00000000000000E-01   8.00000000000000E-01   0.00000000000000E+00   4.39287643779448E-14   3.51578113538460E-10
      2.07453423357815E-17   3.51622063048180E-10   1.44806582187014E-13
      3.12388356029987E-09
      8.00000000000000E-01   8.00000000000000E-01   0.00000000000000E+00   1.30776275837333E-15   1.80997902019378E-11
      2.07453379150729E-17   1.81011187100341E-11   1.37334162681758E-13   8.00000000000000E-01   8.00000000000000E-01
      0.00000000000000E+00   1.31804021006838E-15   1.80219547280878E-11   2.07453393760766E-17   1.80232935136373E-11
      1.95897601227159E-13   8.00000000000000E-01   8.00000000000000E-01   0.00000000000000E+00   2.04408188978297E-16
      2.87967375744162E-12   2.07453377952190E-17   2.87989891096839E-12   1.72746741814158E-13   0.00000000000000E+00
      0.00000000000000E+00   0.00000000000000E+00  -5.10275192095365E-13  -1.39374582657601E-15   1.12926050846491E-08
      1.12920934157112E-08  -3.75764305101453E-13  -7.00000000000000E+00  -7.00000000000000E+00   0.00000000000000E+00
      7.22399150343829E-09  -1.24719976034346E-14  -1.91447139756676E-08  -1.19207349442269E-08  -2.75016596521667E-13
      8.00000000000000E-01   8.00000000000000E-01   0.00000000000000E+00   3.80430218514169E-14   5.89599153613916E-10
      2.07453365327004E-17   5.89637217381104E-10   1.44802395900046E-13
      3.28424509242177E-09
      8.00000000000000E-01   8.00000000000000E-01   0.00000000000000E+00   1.00840124864422E-15   2.31370182250120E-11
      2.07453379323579E-17   2.31380473715985E-11   1.37334165985379E-13   8.00000000000000E-01   8.00000000000000E-01
      0.00000000000000E+00   1.00976303874444E-15   2.30737129476151E-11   2.07453396015026E-17   2.30747434559935E-11
      1.95897682859378E-13   8.00000000000000E-01   8.00000000000000E-01   0.00000000000000E+00   1.47053836194510E-16
      3.63438089977988E-12   2.07453377979600E-17   3.63454869895387E-12   1.72746742418783E-13   0.00000000000000E+00
      0.00000000000000E+00   0.00000000000000E+00  -4.27500849087957E-13  -1.40964714568761E-15   9.82191856709964E-09
      9.82148965660340E-09  -3.75762614363810E-13  -7.00000000000000E+00  -7.00000000000000E+00   0.00000000000000E+00
      7.93078759006337E-09  -1.24719438071593E-14  -1.85433314288867E-08  -1.06125563107671E-08  -2.75015379877159E-13
      8.00000000000000E-01   8.00000000000000E-01   0.00000000000000E+00   3.17802393487726E-14   7.41187513652489E-10
      2.07453456813875E-17   7.41219314637183E-10   1.44799402977430E-13
      3.52478739060462E-09
      8.00000000000000E-01   8.00000000000000E-01   0.00000000000000E+00   5.84181829201492E-16   2.82947829704960E-11
      2.07453379520766E-17   2.82953878976631E-11   1.37334172183151E-13   8.00000000000000E-01   8.00000000000000E-01
      0.00000000000000E+00   5.75585803351212E-16   2.82528426393046E-11   2.07453376667026E-17   2.82534389704456E-11
      1.95897800936094E-13   8.00000000000000E-01   8.00000000000000E-01   0.00000000000000E+00   9.08477951290853E-17
      4.40310487600384E-12   2.07453378007932E-17   4.40321646913677E-12   1.72746743567455E-13   0.00000000000000E+00
      0.00000000000000E+00   0.00000000000000E+00  -3.23487713756955E-13  -1.41468501592320E-15   8.06383370168451E-09
      8.06350879928573E-09  -3.75760468880724E-13  -7.00000000000000E+00  -7.00000000000000E+00   0.00000000000000E+00
      8.61653789004206E-09  -1.24718557420001E-14  -1.76575325066856E-08  -9.04100708849932E-09  -2.75013385620706E-13
      8.00000000000000E-01   8.00000000000000E-01   0.00000000000000E+00   2.21875689340747E-14   9.16524037562037E-10
      2.07453384131297E-17   9.16546245876309E-10   1.44795137814728E-13
      3.70519411424175E-09
      8.00000000000000E-01   8.00000000000000E-01   0.00000000000000E+00   3.06829293653416E-16   3.04675311192579E-11
      2.07453379623278E-17   3.04678586938895E-11   1.37334177482021E-13   8.00000000000000E-01   8.00000000000000E-01
      0.00000000000000E+00   3.09548171822388E-16   3.04384529402589E-11   2.07453384680313E-17   3.04387832337692E-11
      1.95897883840065E-13   8.00000000000000E-01   8.00000000000000E-01   0.00000000000000E+00   4.22465507758484E-17
      4.72431381121491E-12   2.07453378024396E-17   4.72437680310349E-12   1.72746744557159E-13   0.00000000000000E+00
      0.00000000000000E+00   0.00000000000000E+00  -2.62036064761544E-13  -1.41508696635293E-15   7.03074883311563E-09
      7.03048538196390E-09  -3.75759109434022E-13  -7.00000000000000E+00  -7.00000000000000E+00   0.00000000000000E+00
      8.89386779206993E-09  -1.24717859625533E-14  -1.69997510947349E-08  -8.10589577445090E-09  -2.75011804817061E-13
      8.00000000000000E-01   8.00000000000000E-01   0.00000000000000E+00   1.60990439026180E-14   1.00976325396696E-09
      2.07453492545254E-17   1.00977937375621E-09   1.44792108371836E-13
      3.97580419969745E-09
      8.00000000000000E-01   8.00000000000000E-01   0.00000000000000E+00   1.40081794434830E-17   3.16191564286779E-11
      2.07453379713561E-17   3.16191911821953E-11   1.37334185889739E-13   8.00000000000000E-01   8.00000000000000E-01
      0.00000000000000E+00   2.12254264870273E-17   3.16028651201990E-11   2.07453384626880E-17   3.16029070909640E-11
      1.95897995029883E-13   8.00000000000000E-01   8.00000000000000E-01   0.00000000000000E+00   8.72939850109148E-18
      4.89058191480027E-12   2.07453378040716E-17   4.89061138953658E-12   1.72746746135767E-13   0.00000000000000E+00
      0.00000000000000E+00   0.00000000000000E+00  -2.04997349323003E-13  -1.41518344392937E-15   5.79762297355750E-09
      5.79741656102473E-09  -3.75757378081268E-13  -7.00000000000000E+00  -7.00000000000000E+00   0.00000000000000E+00
      9.03876757340867E-09  -1.24716786720322E-14  -1.60093021185644E-08  -6.97054701683436E-09  -2.75009375305592E-13
      8.00000000000000E-01   8.00000000000000E-01   0.00000000000000E+00   1.01726645373495E-14   1.10500755273704E-09
      2.07453388795879E-17   1.10501774614692E-09   1.44787826331471E-13
      4.17876176378922E-09
      8.00000000000000E-01   8.00000000000000E-01   0.00000000000000E+00  -1.34764984651526E-16   3.12531872824177E-11
      2.07453379742866E-17   3.12530732627710E-11   1.37334192263219E-13   8.00000000000000E-01   8.00000000000000E-01
      0.00000000000000E+00  -1.34241401422783E-16   3.12422380586582E-11   2.07453370723771E-17   3.12421245625938E-11
      1.95898065855067E-13   8.00000000000000E-01   8.00000000000000E-01   0.00000000000000E+00  -1.30423670832791E-17
      4.83185367673456E-12   2.07453378042195E-17   4.83186137970528E-12   1.72746747337152E-13   0.00000000000000E+00
      0.00000000000000E+00   0.00000000000000E+00  -1.77602156210359E-13  -1.41518663138024E-15   5.04213178861410E-09
      5.04195277127126E-09  -3.75756279648767E-13  -7.00000000000000E+00  -7.00000000000000E+00   0.00000000000000E+00
      8.98941811437066E-09  -1.24715977600167E-14  -1.52543359030053E-08  -6.26493026023242E-09  -2.75007544885080E-13
      8.00000000000000E-01   8.00000000000000E-01   0.00000000000000E+00   8.30469210065449E-15   1.15564210431864E-09
      2.07453396633589E-17   1.15565042975608E-09   1.44784819078408E-13
      4.48319810992689E-09
      8.00000000000000E-01   8.00000000000000E-01   0.00000000000000E+00  -2.87005237681884E-16   2.94897271058095E-11
      2.07453379744139E-17   2.94894608459098E-11   1.37334201501647E-13   8.00000000000000E-01   8.00000000000000E-01
      0.00000000000000E+00  -2.97723405833031E-16   2.94826018033111E-11   2.07453373451037E-17   2.94823248252426E-11
      1.95898148418577E-13   8.00000000000000E-01   8.00000000000000E-01   0.00000000000000E+00  -4.44222021360463E-17
      4.56310679831305E-12   2.07453378041439E-17   4.56308312144872E-12   1.72746749083695E-13   0.00000000000000E+00
      0.00000000000000E+00   0.00000000000000E+00  -1.52200554212504E-13  -1.41518725727006E-15   4.05843101617312E-09
      4.05827740043165E-09  -3.75754897065568E-13  -7.00000000000000E+00  -7.00000000000000E+00   0.00000000000000E+00
      8.73842848674236E-09  -1.24714781919856E-14  -1.40868475749812E-08  -5.34843155971706E-09  -2.75004843999451E-13
      8.00000000000000E-01   8.00000000000000E-01   0.00000000000000E+00   8.98618072206692E-15   1.22661028356672E-09
      2.07453396259411E-17   1.22661929049278E-09   1.44780642061103E-13
      4.71152536953014E-09
      8.00000000000000E-01   8.00000000000000E-01   0.00000000000000E+00  -3.30943779299566E-16   2.75720035689648E-11
      2.07453379721510E-17   2.75716933705235E-11   1.37334208001534E-13   8.00000000000000E-01   8.00000000000000E-01
      0.00000000000000E+00  -3.39527210872663E-16   2.75658993664969E-11   2.07453372466192E-17   2.75655805846233E-11
      1.95898190266248E-13   8.00000000000000E-01   8.00000000000000E-01   0.00000000000000E+00  -4.95969591993578E-17
      4.27303081503529E-12   2.07453378035704E-17   4.27300196341389E-12   1.72746750315499E-13   0.00000000000000E+00
      0.00000000000000E+00   0.00000000000000E+00  -1.46053971551444E-13  -1.41518728499330E-15   3.38898967276100E-09
      3.38884220360216E-09  -3.75754047983983E-13  -7.00000000000000E+00  -7.00000000000000E+00   0.00000000000000E+00
      8.43878642117602E-09  -1.24713911848723E-14  -1.31776526685475E-08  -4.73887871876270E-09  -2.75002882165627E-13
      8.00000000000000E-01   8.00000000000000E-01   0.00000000000000E+00   1.15110645198404E-14   1.29061470743210E-09
      2.07453462005192E-17   1.29062623924197E-09   1.44777781566327E-13
      5.05401625893501E-09
      8.00000000000000E-01   8.00000000000000E-01   0.00000000000000E+00  -3.88490073856913E-16   2.42371684595775E-11
      2.07453379668232E-17   2.42368007148416E-11   1.37334216849866E-13   8.00000000000000E-01   8.00000000000000E-01
      0.00000000000000E+00  -3.85729981096864E-16   2.42314485448982E-11   2.07453362640487E-17   2.42310835602534E-11
      1.95898219756407E-13   8.00000000000000E-01   8.00000000000000E-01   0.00000000000000E+00  -6.26219899440155E-17
      3.76948024606126E-12   2.07453378031379E-17   3.76943836940911E-12   1.72746751995680E-13   0.00000000000000E+00
      0.00000000000000E+00   0.00000000000000E+00  -1.36951440943881E-13  -1.41518732177053E-15   2.43977129192577E-09
      2.43963292529750E-09  -3.75753051743232E-13  -7.00000000000000E+00  -7.00000000000000E+00   0.00000000000000E+00
      7.84339837227797E-09  -1.24712671633129E-14  -1.17596625777497E-08  -3.91627667673893E-09  -2.75000091549676E-13
      8.00000000000000E-01   8.00000000000000E-01   0.00000000000000E+00   1.70363978117260E-14   1.42438937165378E-09