DF-ISE text

Info {
  version   = 1.0
  type      = xyplot
  datasets  = [
    "time"
    "Ntop OuterVoltage" "Ntop InnerVoltage" "Ntop QuasiFermiPotential" "Ntop DisplacementCurrent" "Ntop eCurrent"
    "Ntop hCurrent" "Ntop TotalCurrent" "Ntop Charge" "Ptop OuterVoltage" "Ptop InnerVoltage"
    "Ptop QuasiFermiPotential" "Ptop DisplacementCurrent" "Ptop eCurrent" "Ptop hCurrent" "Ptop TotalCurrent"
    "Ptop Charge" "Pbot OuterVoltage" "Pbot InnerVoltage" "Pbot QuasiFermiPotential" "Pbot DisplacementCurrent"
    "Pbot eCurrent" "Pbot hCurrent" "Pbot TotalCurrent" "Pbot Charge" ]
  functions = [
    Time
    OuterVoltage InnerVoltage QuasiFermiPotential DisplacementCurrent eCurrent
    hCurrent TotalCurrent Charge OuterVoltage InnerVoltage
    QuasiFermiPotential DisplacementCurrent eCurrent hCurrent TotalCurrent
    Charge OuterVoltage InnerVoltage QuasiFermiPotential DisplacementCurrent
    eCurrent hCurrent TotalCurrent Charge ]
}

Data {
      5.00000000000000E-13
      8.00000000000000E-01   8.00000000000000E-01   0.00000000000000E+00   2.56802482764655E-15   1.75875344899712E-13
      2.07551478383900E-17   1.78464124875197E-13   1.71121898737636E-13   0.00000000000000E+00   0.00000000000000E+00
      0.00000000000000E+00  -1.07315947833668E-13  -1.96738351508738E-16   1.63231187669820E-07   1.63231080157134E-07
     -4.72084923834548E-14  -1.70000000000000E+01  -1.70000000000000E+01   0.00000000000000E+00  -2.82037138090488E-13
      1.31996784018747E-11  -1.63244176262522E-07  -1.63231258621258E-07  -1.23913406354180E-13
      1.25000000000000E-12
      8.00000000000000E-01   8.00000000000000E-01   0.00000000000000E+00   3.02164790079431E-14   5.32610597468072E-13
      2.07551781165121E-17   5.62847831654132E-13   1.71121898736873E-13   0.00000000000000E+00   0.00000000000000E+00
      0.00000000000000E+00   4.03328270384898E-15  -1.96738351508935E-16   1.63232612437313E-07   1.63232616273858E-07
     -4.72084923819826E-14  -1.70000000000000E+01  -1.70000000000000E+01   0.00000000000000E+00  -1.69346005749086E-12
      6.09120829953661E-11  -1.63292397744627E-07  -1.63233179121689E-07  -1.23913406354890E-13
      2.37500000000000E-12
      8.00000000000000E-01   8.00000000000000E-01   0.00000000000000E+00   1.97627435416212E-13   4.77239263522722E-12
      2.07551516795852E-17   4.97004082579511E-12   1.71121898725500E-13   0.00000000000000E+00   0.00000000000000E+00
      0.00000000000000E+00   1.36155582233534E-12  -1.96738351434199E-16   1.63249715743278E-07   1.63251077102362E-07
     -4.72084923600031E-14  -1.70000000000000E+01  -1.70000000000000E+01   0.00000000000000E+00  -1.85378973240356E-11
      5.03867085615041E-10  -1.63741376331478E-07  -1.63256047143187E-07  -1.23913406365497E-13
      4.06250000000000E-12
      8.00000000000000E-01   8.00000000000000E-01   0.00000000000000E+00   2.85317882774963E-12   9.62223666641735E-11
      2.07551687271309E-17   9.90755662470919E-11   1.71121898383636E-13   0.00000000000000E+00   0.00000000000000E+00
      0.00000000000000E+00   2.00757634119815E-11  -1.96738350068577E-16   1.63645493243547E-07   1.63665568810221E-07
     -4.72084916986468E-14  -1.70000000000000E+01  -1.70000000000000E+01   0.00000000000000E+00  -3.93870294720367E-10
      7.63978148749011E-09  -1.71010555569237E-07  -1.63764644376467E-07  -1.23913406684989E-13
      6.59375000000000E-12
      8.00000000000000E-01   8.00000000000000E-01   0.00000000000000E+00   5.47765279956977E-11   2.73302240675079E-09
      2.07551773450238E-17   2.78779895550167E-09   1.71121883567336E-13   0.00000000000000E+00   0.00000000000000E+00
      0.00000000000000E+00   4.08866710432047E-10  -1.96738331894247E-16   1.75811804848008E-07   1.76220671361702E-07
     -4.72084629256053E-14  -1.70000000000000E+01  -1.70000000000000E+01   0.00000000000000E+00  -1.16675796917623E-08
      1.52755480291001E-07  -3.20096370916442E-07  -1.79008470317204E-07  -1.23913420641731E-13
      1.03906250000000E-11
      8.00000000000000E-01   8.00000000000000E-01   0.00000000000000E+00   4.41384762610852E-10   3.56629404044573E-08
      2.07556227327960E-17   3.61043251878238E-08   1.71121567748305E-13   0.00000000000000E+00   0.00000000000000E+00
      0.00000000000000E+00   3.44417381458141E-09  -1.96737987610520E-16   3.38398131240230E-07   3.41842304858074E-07
     -4.72078456915912E-14  -1.70000000000000E+01  -1.70000000000000E+01   0.00000000000000E+00  -1.59061135928028E-07
      1.26924293123131E-06  -1.48812842534917E-06  -3.77946630045897E-07  -1.23913722056714E-13
      1.60859375000000E-11
      8.00000000000000E-01   8.00000000000000E-01   0.00000000000000E+00   2.27203987889955E-10   8.15398437708154E-08
      2.07558831614775E-17   8.17670477794613E-08   1.71119945980278E-13   0.00000000000000E+00   0.00000000000000E+00
      0.00000000000000E+00   1.85200217265687E-09  -1.96737237911482E-16   6.02773754386220E-07   6.04625756362139E-07
     -4.72046400419750E-14  -1.70000000000000E+01  -1.70000000000000E+01   0.00000000000000E+00  -3.87620127730607E-07
      6.68803775472067E-07  -9.67576451883060E-07  -6.86392804141600E-07  -1.23915305938304E-13
      2.46289062500000E-11
      8.00000000000000E-01   8.00000000000000E-01   0.00000000000000E+00   1.06172304649999E-11   1.00521970712634E-07
      2.07553295899538E-17   1.00532587963854E-07   1.71116240818573E-13   0.00000000000000E+00   0.00000000000000E+00
      0.00000000000000E+00  -1.88851068389553E-12  -1.96737057816537E-16   7.14845560424528E-07   7.14843671717107E-07
     -4.71971624015778E-14  -1.70000000000000E+01  -1.70000000000000E+01   0.00000000000000E+00  -4.79160903273349E-07
      1.23928204880234E-09  -3.37454638456412E-07  -8.15376259680959E-07  -1.23919078416994E-13
      3.74433593750000E-11
      8.00000000000000E-01   8.00000000000000E-01   0.00000000000000E+00   1.43673382961306E-11   1.04770520392774E-07
      2.07557535376379E-17   1.04784887751825E-07   1.71110656380082E-13   0.00000000000000E+00   0.00000000000000E+00
      0.00000000000000E+00  -2.91112678184175E-11  -1.96735154227037E-16   7.10897925719312E-07   7.10868814254758E-07
     -4.71854918736195E-14  -1.70000000000000E+01  -1.70000000000000E+01   0.00000000000000E+00  -4.70361210031766E-07
     -5.01678936989624E-15  -3.45292486958024E-07  -8.15653702006580E-07  -1.23925164506462E-13
      5.66650390625000E-11
      8.00000000000000E-01   8.00000000000000E-01   0.00000000000000E+00   1.48340819152090E-11   1.12205278718284E-07
      2.07552426526195E-17   1.12220112820955E-07   1.71103211979578E-13   0.00000000000000E+00   0.00000000000000E+00
      0.00000000000000E+00  -3.71548913905476E-11  -1.96689086232707E-16   6.98495914640677E-07   6.98458759552597E-07
     -4.71691634961040E-14  -1.70000000000000E+01  -1.70000000000000E+01   0.00000000000000E+00  -4.53998863105800E-07
     -5.01721415827145E-15  -3.56680004250537E-07  -8.10678872373551E-07  -1.23934048483474E-13
      8.54975585937500E-11
      8.00000000000000E-01   8.00000000000000E-01   0.00000000000000E+00   1.96202299626849E-11   1.25508608289280E-07
      2.07554553641430E-17   1.25528228539998E-07   1.71093671935095E-13   0.00000000000000E+00   0.00000000000000E+00
      0.00000000000000E+00  -4.92379945368724E-11  -1.95710537980584E-16   6.74616853038038E-07   6.74567614847790E-07
     -4.71468834329945E-14  -1.70000000000000E+01  -1.70000000000000E+01   0.00000000000000E+00  -4.29826526501929E-07
     -5.01763138577663E-15  -3.70269311868226E-07  -8.00095843387786E-07  -1.23946788502101E-13
      1.28746337890625E-10
      8.00000000000000E-01   8.00000000000000E-01   0.00000000000000E+00   2.95424680970089E-11   1.54355776094994E-07
      2.07556101270109E-17   1.54385318583846E-07   1.71082259600437E-13   0.00000000000000E+00   0.00000000000000E+00
      0.00000000000000E+00  -6.54533586466979E-11  -1.79564559932084E-16   6.27356421897538E-07   6.27290968359327E-07
     -4.71176075643722E-14  -1.70000000000000E+01  -1.70000000000000E+01   0.00000000000000E+00  -3.96628916641183E-07
     -5.01817725150535E-15  -3.85047365283814E-07  -7.81676286943174E-07  -1.23964652036066E-13
      1.93619506835937E-10
      8.00000000000000E-01   8.00000000000000E-01   0.00000000000000E+00   3.95917234334441E-11   2.15689429164751E-07
      2.07560023861908E-17   2.15729020908940E-07   1.71070851691777E-13   0.00000000000000E+00   0.00000000000000E+00
      0.00000000000000E+00  -7.94662946296600E-11   1.38197310152896E-17   5.37739859334769E-07   5.37660393053959E-07
     -4.70818551083431E-14  -1.70000000000000E+01  -1.70000000000000E+01   0.00000000000000E+00  -3.54627477898787E-07
     -5.01890265288277E-15  -3.98761931045211E-07  -7.53389413962900E-07  -1.23988996583435E-13
      2.42274383544922E-10
      8.00000000000000E-01   8.00000000000000E-01   0.00000000000000E+00   4.14807546907496E-11   2.69183578411239E-07
      2.07558549247252E-17   2.69225059186685E-07   1.71066596087743E-13   0.00000000000000E+00   0.00000000000000E+00
      0.00000000000000E+00  -8.16432334319647E-11   4.98727966969544E-16   4.63502951449382E-07   4.63421308714678E-07
     -4.70609983078795E-14  -1.70000000000000E+01  -1.70000000000000E+01   0.00000000000000E+00  -3.28051184072381E-07
     -5.01939532791005E-15  -4.04595178809585E-07  -7.32646367901360E-07  -1.24005597779864E-13
      3.15256698608398E-10
      8.00000000000000E-01   8.00000000000000E-01   0.00000000000000E+00   3.73474640237674E-11   3.47290722438282E-07
      2.07562416458566E-17   3.47328069923062E-07   1.71066662642546E-13   0.00000000000000E+00   0.00000000000000E+00
      0.00000000000000E+00  -7.58069717952274E-11   2.35241871049347E-15   3.54523799420370E-07   3.54447994800994E-07
     -4.70384259152664E-14  -1.70000000000000E+01  -1.70000000000000E+01   0.00000000000000E+00  -2.92649212955360E-07
     -5.02006785228545E-15  -4.09126846748628E-07  -7.01776064724055E-07  -1.24028236727279E-13
      3.69993434906006E-10
      8.00000000000000E-01   8.00000000000000E-01   0.00000000000000E+00   3.07736147762914E-11   3.97618933612857E-07
      2.07564921644048E-17   3.97649707248389E-07   1.71071190753894E-13   0.00000000000000E+00   0.00000000000000E+00
      0.00000000000000E+00  -6.69853691146103E-11   4.97986787078823E-15   2.80633034698511E-07   2.80566054309264E-07
     -4.70276161889326E-14  -1.70000000000000E+01  -1.70000000000000E+01   0.00000000000000E+00  -2.67828979813061E-07
     -5.02052387372409E-15  -4.10386776724069E-07  -6.78215761557654E-07  -1.24043574564960E-13
      4.11045987129211E-10
      8.00000000000000E-01   8.00000000000000E-01   0.00000000000000E+00   2.50395073588511E-11   4.28483652009177E-07
      2.07566339228144E-17   4.28508691537293E-07   1.71076646000928E-13   0.00000000000000E+00   0.00000000000000E+00
      0.00000000000000E+00  -5.93543656031391E-11   7.78222367897943E-15   2.31641847433654E-07   2.31582500850274E-07
     -4.70224526198652E-14  -1.70000000000000E+01  -1.70000000000000E+01   0.00000000000000E+00  -2.49503917102822E-07
     -5.02083966167635E-15  -4.10587270263906E-07  -6.60091192387568E-07  -1.24054193381063E-13
      4.72624815464020E-10
      8.00000000000000E-01   8.00000000000000E-01   0.00000000000000E+00   1.65840730993937E-11   4.62947299333269E-07
      2.07566918190639E-17   4.62963883427125E-07   1.71087332618596E-13   0.00000000000000E+00   0.00000000000000E+00
      0.00000000000000E+00  -4.81029866700489E-11   1.33866724167580E-14   1.69187506157506E-07   1.69139416557508E-07
     -4.70186219396455E-14  -1.70000000000000E+01  -1.70000000000000E+01   0.00000000000000E+00  -2.21982992518610E-07
     -5.02127135658580E-15  -4.10120302444752E-07  -6.32103299984633E-07  -1.24068710678951E-13
      5.18808936715126E-10
      8.00000000000000E-01   8.00000000000000E-01   0.00000000000000E+00   1.09645444747090E-11   4.80052285235317E-07
      2.07568147671498E-17   4.80063249800548E-07   1.71096811368531E-13   0.00000000000000E+00   0.00000000000000E+00
      0.00000000000000E+00  -4.05817497073247E-11   1.86701147502067E-14   1.30534234737020E-07   1.30493671657427E-07
     -4.70183281779154E-14  -1.70000000000000E+01  -1.70000000000000E+01   0.00000000000000E+00  -2.01203482864072E-07
     -5.02156188988163E-15  -4.09353433572341E-07  -6.10556921457975E-07  -1.24078483190616E-13
      5.88085118591785E-10
      8.00000000000000E-01   8.00000000000000E-01   0.00000000000000E+00   4.25784304095067E-12   4.94134780953831E-07
      2.07568680890357E-17   4.94139038817629E-07   1.71112455239073E-13   0.00000000000000E+00   0.00000000000000E+00
      0.00000000000000E+00  -3.14481831514232E-11   2.81901120845692E-14   8.35597554423944E-08   8.35283354493550E-08
     -4.70211186162953E-14  -1.70000000000000E+01  -1.70000000000000E+01   0.00000000000000E+00  -1.69868294513916E-07
     -5.02194387249742E-15  -4.07799074731124E-07  -5.77667374266984E-07  -1.24091336622778E-13
      6.91999391406774E-10
      8.00000000000000E-01   8.00000000000000E-01   0.00000000000000E+00  -2.27915088246303E-12   4.96605310080830E-07
      2.07568642537764E-17   4.96603030950705E-07   1.71137337610169E-13   0.00000000000000E+00   0.00000000000000E+00
      0.00000000000000E+00  -2.19520893790481E-11   4.54887372788685E-14   3.15949055485159E-08   3.15729989478742E-08
     -4.70307777616566E-14  -1.70000000000000E+01  -1.70000000000000E+01   0.00000000000000E+00  -1.23221465076907E-07
     -5.02239598527217E-15  -4.04954559799276E-07  -5.28176029898579E-07  -1.24106559848512E-13
      7.69935096018016E-10
      8.00000000000000E-01   8.00000000000000E-01   0.00000000000000E+00  -5.28617315509772E-12   4.88685762737435E-07
      2.07568397060680E-17   4.88680476585037E-07   1.71156066578416E-13   0.00000000000000E+00   0.00000000000000E+00
      0.00000000000000E+00  -1.68881532031779E-11   6.02734927350200E-14   3.23721573005561E-09   3.22038785034517E-09
     -4.70412303593241E-14  -1.70000000000000E+01  -1.70000000000000E+01   0.00000000000000E+00  -8.92884271169328E-08
     -5.02264159066916E-15  -4.02612432295806E-07  -4.91900864435380E-07  -1.24114836219092E-13
      8.86838652934879E-10
      8.00000000000000E-01   8.00000000000000E-01   0.00000000000000E+00  -8.63978551961714E-12   4.66832616448784E-07
      2.07567627915282E-17   4.66823976684021E-07   1.71182860308310E-13   0.00000000000000E+00   0.00000000000000E+00
      0.00000000000000E+00  -1.00126576882594E-11   8.39541771236946E-14  -2.60726362264880E-08  -2.60825649299991E-08
     -4.70603883446036E-14  -1.70000000000000E+01  -1.70000000000000E+01   0.00000000000000E+00  -4.17743413868722E-08
     -5.02286796933307E-15  -3.98967065344281E-07  -4.40741411754022E-07  -1.24122471963706E-13
      9.74516320622526E-10
      8.00000000000000E-01   8.00000000000000E-01   0.00000000000000E+00  -1.09548869794541E-11   4.43764796925936E-07
      2.07566876177765E-17   4.43753842059713E-07   1.71201290598176E-13   0.00000000000000E+00   0.00000000000000E+00
      0.00000000000000E+00  -4.56040925228444E-12   1.01869734481527E-13  -3.77878185951865E-08  -3.77922771347043E-08
     -4.70765720817341E-14  -1.70000000000000E+01  -1.70000000000000E+01   0.00000000000000E+00  -9.78243173677664E-09
     -5.02293441477562E-15  -3.96179128165298E-07  -4.05961564925009E-07  -1.24124718516443E-13
      1.10603282215400E-09
      8.00000000000000E-01   8.00000000000000E-01   0.00000000000000E+00  -1.42840105176100E-11   3.98981437861676E-07
      2.07566038238026E-17   3.98967153871915E-07   1.71225070020949E-13   0.00000000000000E+00   0.00000000000000E+00
      0.00000000000000E+00   3.87376632380027E-12   1.26826644568654E-13  -3.80288142866926E-08  -3.80248136937243E-08
     -4.71017965880132E-14  -1.70000000000000E+01  -1.70000000000000E+01   0.00000000000000E+00   3.09774891943877E-08
     -5.02289123275674E-15  -3.91919824349688E-07  -3.60942340178192E-07  -1.24123273432935E-13
      1.20467019830260E-09
      8.00000000000000E-01   8.00000000000000E-01   0.00000000000000E+00  -1.62357919337892E-11   3.58257773398390E-07
      2.07564168195655E-17   3.58241537627213E-07   1.71239145918502E-13   0.00000000000000E+00   0.00000000000000E+00
      0.00000000000000E+00   9.42820028307433E-12   1.42794585848490E-13  -2.51985006341631E-08  -2.51889296392942E-08
     -4.71201621743486E-14  -1.70000000000000E+01  -1.70000000000000E+01   0.00000000000000E+00   5.55655494071548E-08
     -5.02276377024119E-15  -3.88618152372309E-07  -3.33052607987918E-07  -1.24118983744153E-13
      1.35262626252550E-09
      8.00000000000000E-01   8.00000000000000E-01   0.00000000000000E+00  -1.73791022197104E-11   2.90606484677936E-07
      2.07561791655352E-17   2.90589105596472E-07   1.71253117594958E-13   0.00000000000000E+00   0.00000000000000E+00
      0.00000000000000E+00   1.46255098684171E-11   1.60499071254632E-13   9.22350511676126E-09   9.23829112570093E-09
     -4.71444826353404E-14  -1.70000000000000E+01  -1.70000000000000E+01   0.00000000000000E+00   8.34683731449635E-08
     -5.02245652343099E-15  -3.83295764844680E-07  -2.99827396722173E-07  -1.24108634959617E-13
      1.46359331069268E-09
      8.00000000000000E-01   8.00000000000000E-01   0.00000000000000E+00  -1.66618975475877E-11   2.39325712167257E-07
      2.07560182818822E-17   2.39309050290466E-07   1.71257726181285E-13   0.00000000000000E+00   0.00000000000000E+00
      0.00000000000000E+00   1.56378603208456E-11   1.68305653602811E-13   4.12057993668793E-08   4.12216055328537E-08
     -4.71591973505181E-14  -1.70000000000000E+01  -1.70000000000000E+01   0.00000000000000E+00   9.82855201293872E-08
     -5.02215659010546E-15  -3.78816170930550E-07  -2.80530655823320E-07  -1.24098528830766E-13
      1.63004388294345E-09
      8.00000000000000E-01   8.00000000000000E-01   0.00000000000000E+00  -1.37421230719892E-11   1.70496204153308E-07
      2.07558278136488E-17   1.70482462050992E-07   1.71255920537593E-13   0.00000000000000E+00   0.00000000000000E+00
      0.00000000000000E+00   1.35476090717775E-11   1.71378410686364E-13   8.74210481573852E-08   8.74347671448677E-08
     -4.71750232176465E-14  -1.70000000000000E+01  -1.70000000000000E+01   0.00000000000000E+00   1.12879988837553E-07
     -5.02163347381968E-15  -3.70797213011779E-07  -2.57917229195860E-07  -1.24080897319947E-13
      1.75488181213153E-09
      8.00000000000000E-01   8.00000000000000E-01   0.00000000000000E+00  -1.09061553989023E-11   1.28784173342159E-07
      2.07556300587742E-17   1.28773267207516E-07   1.71248870606581E-13   0.00000000000000E+00   0.00000000000000E+00
      0.00000000000000E+00   1.04801157496441E-11   1.67691265308741E-13   1.15660193010893E-07   1.15670840817908E-07
     -4.71824639231970E-14  -1.70000000000000E+01  -1.70000000000000E+01   0.00000000000000E+00   1.18959933123921E-07
     -5.02120370099629E-15  -3.63404036128142E-07  -2.44444108025424E-07  -1.24066406683384E-13
      1.94213870591364E-09
      8.00000000000000E-01   8.00000000000000E-01   0.00000000000000E+00  -7.00654007579702E-12   8.35061099111678E-08
      2.07554372015476E-17   8.34991033918474E-08   1.71232290383096E-13   0.00000000000000E+00   0.00000000000000E+00
      0.00000000000000E+00   5.87265647808494E-12   1.55061167324191E-13   1.44218279299000E-07   1.44224307016645E-07
     -4.71884807468684E-14  -1.70000000000000E+01  -1.70000000000000E+01   0.00000000000000E+00   1.21793222151589E-07
     -5.02053387599163E-15  -3.49516627539548E-07  -2.27723410408493E-07  -1.24043809636227E-13
      2.08258137625022E-09
      8.00000000000000E-01   8.00000000000000E-01   0.00000000000000E+00  -4.80821741613113E-12   6.11030673705204E-08
      2.07553388074456E-17   6.10982591738596E-08   1.71217175676754E-13   0.00000000000000E+00   0.00000000000000E+00
      0.00000000000000E+00   3.24375640609418E-12   1.41837454652481E-13   1.56064318488524E-07   1.56067704082385E-07
     -4.71903366318767E-14  -1.70000000000000E+01  -1.70000000000000E+01   0.00000000000000E+00   1.19589639977923E-07
     -5.02003119990540E-15  -3.36755598214137E-07  -2.17165963256245E-07  -1.24026839044877E-13
      2.29324538175510E-09
      8.00000000000000E-01   8.00000000000000E-01   0.00000000000000E+00  -2.70851685599347E-12   3.98967248061141E-08
      2.07553257026985E-17   3.98940163100134E-08   1.71193674244397E-13   0.00000000000000E+00   0.00000000000000E+00
      0.00000000000000E+00   8.87713551858367E-13   1.19465321576242E-13   1.63829452820704E-07   1.63830459999578E-07
     -4.71911299199190E-14  -1.70000000000000E+01  -1.70000000000000E+01   0.00000000000000E+00   1.10537692313492E-07
     -5.01931227184122E-15  -3.14262163603770E-07  -2.03724476309590E-07  -1.24002544324479E-13
      2.45124338588376E-09
      8.00000000000000E-01   8.00000000000000E-01   0.00000000000000E+00  -1.82721801863202E-12   3.02248576320328E-08
      2.07553353332365E-17   3.02230304347695E-08   1.71176964248461E-13   0.00000000000000E+00   0.00000000000000E+00
      0.00000000000000E+00   6.84576224530409E-14   1.02470025759601E-13   1.65086870426814E-07   1.65087041354463E-07
     -4.71910838947774E-14  -1.70000000000000E+01  -1.70000000000000E+01   0.00000000000000E+00   1.00198472659571E-07
     -5.01881971298508E-15  -2.95508539429983E-07  -1.95310071789232E-07  -1.23985880353684E-13
      2.56974188898025E-09
      8.00000000000000E-01   8.00000000000000E-01   0.00000000000000E+00  -1.39987227888340E-12   2.50413154411842E-08
      2.07553055358993E-17   2.50399155896606E-08   1.71165539574279E-13   0.00000000000000E+00   0.00000000000000E+00
      0.00000000000000E+00  -2.28971848088878E-13   9.03430492781507E-14   1.64826026600195E-07   1.64825887971396E-07
     -4.71909980270650E-14  -1.70000000000000E+01  -1.70000000000000E+01   0.00000000000000E+00   9.11052955840202E-08
     -5.01848486471827E-15  -2.80971094126592E-07  -1.89865803561057E-07  -1.23974541547214E-13
      2.65861576630262E-09
      8.00000000000000E-01   8.00000000000000E-01   0.00000000000000E+00  -1.16309304159701E-12   2.19474715669604E-08
      2.07552597547892E-17   2.19463084946741E-08   1.71157732884528E-13   0.00000000000000E+00   0.00000000000000E+00
      0.00000000000000E+00  -3.40428669968518E-13   8.17932245946591E-14   1.64301629185326E-07   1.64301370549881E-07
     -4.71909660614538E-14  -1.70000000000000E+01  -1.70000000000000E+01   0.00000000000000E+00   8.38340012466826E-08
     -5.01825543028697E-15  -2.70081675272982E-07  -1.86247679044555E-07  -1.23966766823074E-13
      2.79192658228618E-09
      8.00000000000000E-01   8.00000000000000E-01   0.00000000000000E+00  -8.97701779321882E-13   1.82215002319717E-08
      2.07552261898931E-17   1.82206025509476E-08   1.71147345413883E-13   0.00000000000000E+00   0.00000000000000E+00
      0.00000000000000E+00  -3.97991600377460E-13   7.00178877637769E-14   1.63306880791481E-07   1.63306552817768E-07
     -4.71910101477251E-14  -1.70000000000000E+01  -1.70000000000000E+01   0.00000000000000E+00   7.26605169544461E-08
     -5.01794782011829E-15  -2.54187667305214E-07  -1.81527155368716E-07  -1.23956335266158E-13
      2.99189280626151E-09
      8.00000000000000E-01   8.00000000000000E-01   0.00000000000000E+00  -6.29738957634560E-13   1.40892896109347E-08
      2.07552290771792E-17   1.40886598927323E-08   1.71134751053175E-13   0.00000000000000E+00   0.00000000000000E+00
      0.00000000000000E+00  -3.51877046159268E-13   5.48890324284369E-14   1.61810257108311E-07   1.61809960120297E-07
     -4.71913043186272E-14  -1.70000000000000E+01  -1.70000000000000E+01   0.00000000000000E+00   5.63520219025483E-08
     -5.01756817047434E-15  -2.32250636898010E-07  -1.75898620013030E-07  -1.23943446734548E-13
      3.29184214222451E-09
      8.00000000000000E-01   8.00000000000000E-01   0.00000000000000E+00  -3.89700088539137E-13   9.96875254164777E-09
      2.07550860242424E-17   9.96836286231432E-09   1.71121934559440E-13   0.00000000000000E+00   0.00000000000000E+00
      0.00000000000000E+00  -1.89439842573512E-13   3.77050728573295E-14   1.60205633856066E-07   1.60205482121297E-07
     -4.71921695149481E-14  -1.70000000000000E+01  -1.70000000000000E+01   0.00000000000000E+00   3.53346863343082E-08
     -5.01716578148644E-15  -2.05508526300753E-07  -1.70173844983611E-07  -1.23929765044492E-13
      3.74176614616901E-09
      8.00000000000000E-01   8.00000000000000E-01   0.00000000000000E+00  -2.03965874438751E-13   6.39386203916305E-09
      2.07551985326258E-17   6.39365809404380E-09   1.71112755293018E-13   0.00000000000000E+00   0.00000000000000E+00
      0.00000000000000E+00   4.27356305468441E-15   2.19034591865387E-14   1.59413001126575E-07   1.59413027303597E-07
     -4.71939369703254E-14  -1.70000000000000E+01  -1.70000000000000E+01   0.00000000000000E+00   1.44142375696238E-08
     -5.01684452089988E-15  -1.80220917950421E-07  -1.65806685397641E-07  -1.23918818322692E-13
      4.41665215208576E-09
      8.00000000000000E-01   8.00000000000000E-01   0.00000000000000E+00  -8.85197648269127E-14   3.78117131696693E-09
      2.07551677422748E-17   3.78108281795727E-09   1.71110313799817E-13   0.00000000000000E+00   0.00000000000000E+00
      0.00000000000000E+00   9.32036622465412E-14   1.16532515566131E-14   1.60105105454758E-07   1.60105210311672E-07
     -4.71965164606552E-14  -1.70000000000000E+01  -1.70000000000000E+01   0.00000000000000E+00   1.81339953546850E-09
     -5.01669763656098E-15  -1.65699687648400E-07  -1.63886293129629E-07  -1.23913797339162E-13
      4.92281665652332E-09
      8.00000000000000E-01   8.00000000000000E-01   0.00000000000000E+00  -5.44291082786701E-14   2.80218450184246E-09
      2.07551356172264E-17   2.80213009348932E-09   1.71111444897340E-13   0.00000000000000E+00   0.00000000000000E+00
      0.00000000000000E+00   7.79520372872985E-14   9.05850717819027E-15   1.60923547406948E-07   1.60923634417492E-07
     -4.71980230107168E-14  -1.70000000000000E+01  -1.70000000000000E+01   0.00000000000000E+00  -9.74371930566495E-11
     -5.01668678855165E-15  -1.63628322301238E-07  -1.63725764510981E-07  -1.23913421886624E-13
      5.68206341317966E-09
      8.00000000000000E-01   8.00000000000000E-01   0.00000000000000E+00  -2.98066676781059E-14   1.94059290245467E-09
      2.07551479796880E-17   1.94056311654214E-09   1.71113212926004E-13   0.00000000000000E+00   0.00000000000000E+00
      0.00000000000000E+00   4.39709218687071E-14   7.58929497474979E-15   1.61784307167481E-07   1.61784358727698E-07
     -4.71996311862030E-14  -1.70000000000000E+01  -1.70000000000000E+01   0.00000000000000E+00  -2.43821939359173E-10
     -5.01669155433648E-15  -1.63481094888189E-07  -1.63724921844240E-07  -1.23913581739800E-13
      6.82093354816418E-09
      8.00000000000000E-01   8.00000000000000E-01   0.00000000000000E+00  -1.42897409425006E-14   1.26755097936548E-09
      2.07551259822305E-17   1.26753671037966E-09   1.71114867107396E-13   0.00000000000000E+00   0.00000000000000E+00
      0.00000000000000E+00   1.70408435052112E-14   6.70801247977905E-15   1.62409594475822E-07   1.62409618224678E-07
     -4.72011845867857E-14  -1.70000000000000E+01  -1.70000000000000E+01   0.00000000000000E+00   3.41781808306696E-11
     -5.01669452061389E-15  -1.63711328099194E-07  -1.63677154935058E-07  -1.23913682520610E-13
      8.52923875064095E-09
      8.00000000000000E-01   8.00000000000000E-01   0.00000000000000E+00  -5.97510064875375E-15   8.07799538011453E-10
      2.07551676823362E-17   8.07793583665972E-10   1.71116264657351E-13   0.00000000000000E+00   0.00000000000000E+00
      0.00000000000000E+00   6.50187218268562E-15   5.74599155079016E-15   1.62764755718866E-07   1.62764767966730E-07
     -4.72026530642562E-14  -1.70000000000000E+01  -1.70000000000000E+01   0.00000000000000E+00   3.73635852427635E-11
     -5.01669240858955E-15  -1.63609920118947E-07  -1.63572561550396E-07  -1.23913611593095E-13
      1.10916965543561E-08
      8.00000000000000E-01   8.00000000000000E-01   0.00000000000000E+00  -2.55683490657625E-15   5.19035718160861E-10
      2.07551244190234E-17   5.19033182081079E-10   1.71117621037400E-13   0.00000000000000E+00   0.00000000000000E+00
      0.00000000000000E+00   2.52388531262846E-15   4.54936300405077E-15   1.62968247676893E-07   1.62968254750141E-07
     -4.72040625180331E-14  -1.70000000000000E+01  -1.70000000000000E+01   0.00000000000000E+00   1.08281249690777E-11
     -5.01669080132198E-15  -1.63498111040500E-07  -1.63487287932222E-07  -1.23913558519367E-13
      1.49353832599288E-08
      8.00000000000000E-01   8.00000000000000E-01   0.00000000000000E+00  -1.29617860530190E-15   3.20390034692864E-10
      2.07551403249471E-17   3.20388759269399E-10   1.71118913376002E-13   0.00000000000000E+00   0.00000000000000E+00
      0.00000000000000E+00   1.04206812658758E-15   3.27074857276896E-15   1.63091358105078E-07   1.63091362417895E-07
     -4.72053965413572E-14  -1.70000000000000E+01  -1.70000000000000E+01   0.00000000000000E+00   9.38532441235294E-12
     -5.01668951781960E-15  -1.63421131484887E-07  -1.63411751177165E-07  -1.23913516834644E-13
      1.99353832599288E-08
      8.00000000000000E-01   8.00000000000000E-01   0.00000000000000E+00  -6.66221901751537E-16   1.87596444662818E-10
      2.07551096725094E-17   1.87595799196026E-10   1.71119923657109E-13   0.00000000000000E+00   0.00000000000000E+00
      0.00000000000000E+00   5.29797039138521E-16   2.21124905299060E-15   1.63164512343201E-07   1.63164515084247E-07
     -4.72064414862787E-14  -1.70000000000000E+01  -1.70000000000000E+01   0.00000000000000E+00   5.14074474095201E-12
     -5.01668844899683E-15  -1.63357246611495E-07  -1.63352110883443E-07  -1.23913482170831E-13
      2.49353832599288E-08
      8.00000000000000E-01   8.00000000000000E-01   0.00000000000000E+00  -3.64955622078316E-16   1.17422657363511E-10
      2.07551075377327E-17   1.17422313162997E-10   1.71120528352019E-13   0.00000000000000E+00   0.00000000000000E+00