DF-ISE text

Info {
  version   = 1.0
  type      = xyplot
  datasets  = [
    "time"
    "Ntop_0_1 OuterVoltage" "Ntop_0_1 InnerVoltage" "Ntop_0_1 QuasiFermiPotential" "Ntop_0_1 DisplacementCurrent" "Ntop_0_1 eCurrent"
    "Ntop_0_1 hCurrent" "Ntop_0_1 TotalCurrent" "Ntop_0_1 Charge" "Ntop_1_0 OuterVoltage" "Ntop_1_0 InnerVoltage"
    "Ntop_1_0 QuasiFermiPotential" "Ntop_1_0 DisplacementCurrent" "Ntop_1_0 eCurrent" "Ntop_1_0 hCurrent" "Ntop_1_0 TotalCurrent"
    "Ntop_1_0 Charge" "Ntop_1_1 OuterVoltage" "Ntop_1_1 InnerVoltage" "Ntop_1_1 QuasiFermiPotential" "Ntop_1_1 DisplacementCurrent"
    "Ntop_1_1 eCurrent" "Ntop_1_1 hCurrent" "Ntop_1_1 TotalCurrent" "Ntop_1_1 Charge" "Ptop OuterVoltage"
    "Ptop InnerVoltage" "Ptop QuasiFermiPotential" "Ptop DisplacementCurrent" "Ptop eCurrent" "Ptop hCurrent"
    "Ptop TotalCurrent" "Ptop Charge" "Pbot OuterVoltage" "Pbot InnerVoltage" "Pbot QuasiFermiPotential"
    "Pbot DisplacementCurrent" "Pbot eCurrent" "Pbot hCurrent" "Pbot TotalCurrent" "Pbot Charge"
    "Ntop_0_0 OuterVoltage" "Ntop_0_0 InnerVoltage" "Ntop_0_0 QuasiFermiPotential" "Ntop_0_0 DisplacementCurrent" "Ntop_0_0 eCurrent"
    "Ntop_0_0 hCurrent" "Ntop_0_0 TotalCurrent" "Ntop_0_0 Charge" ]
  functions = [
    Time
    OuterVoltage InnerVoltage QuasiFermiPotential DisplacementCurrent eCurrent
    hCurrent TotalCurrent Charge OuterVoltage InnerVoltage
    QuasiFermiPotential DisplacementCurrent eCurrent hCurrent TotalCurrent
    Charge OuterVoltage InnerVoltage QuasiFermiPotential DisplacementCurrent
    eCurrent hCurrent TotalCurrent Charge OuterVoltage
    InnerVoltage QuasiFermiPotential DisplacementCurrent eCurrent hCurrent
    TotalCurrent Charge OuterVoltage InnerVoltage QuasiFermiPotential
    DisplacementCurrent eCurrent hCurrent TotalCurrent Charge
    OuterVoltage InnerVoltage QuasiFermiPotential DisplacementCurrent eCurrent
    hCurrent TotalCurrent Charge ]
}

Data {
      1.00000000000000E-09
      8.00000000000000E-01   8.00000000000000E-01   0.00000000000000E+00   2.65494921131168E-14   5.55922245964778E-10
      2.07444442375482E-17   5.55948816201336E-10   1.73024066422749E-13   8.00000000000000E-01   8.00000000000000E-01
      0.00000000000000E+00   2.65653444085200E-14   5.56165471992684E-10   2.07444442089503E-17   5.56192058081536E-10
      2.48355044214311E-13   8.00000000000000E-01   8.00000000000000E-01   0.00000000000000E+00   1.00600884798901E-14
      2.27154277354248E-10   2.07444432686001E-17   2.27164358187171E-10   2.27356245275835E-13   0.00000000000000E+00
      0.00000000000000E+00   0.00000000000000E+00   3.81122667837747E-12   1.67580259408712E-09   4.93520702355935E-08
      5.10316840563590E-08  -4.20062325725596E-13  -2.00000000000000E+01  -2.00000000000000E+01   0.00000000000000E+00
     -2.71708831716255E-08   2.49631691328503E-09  -3.30692597249238E-08  -5.77438259832642E-08  -4.18783013187123E-13
      8.00000000000000E-01   8.00000000000000E-01   0.00000000000000E+00   3.08937146210059E-13   5.37252773654474E-09
      2.07444412211493E-17   5.37283669443539E-09   1.90109982999827E-13
      1.37500000000000E-09
      8.00000000000000E-01   8.00000000000000E-01   0.00000000000000E+00  -3.09703901622545E-14   4.84859854794717E-10
      2.07444442961809E-17   4.84828905148999E-10   1.73024269552561E-13   8.00000000000000E-01   8.00000000000000E-01
      0.00000000000000E+00  -3.09848645557108E-14   4.85127584760345E-10   2.07444442693150E-17   4.85096620640234E-10
      2.48355247444246E-13   8.00000000000000E-01   8.00000000000000E-01   0.00000000000000E+00  -1.57403874259189E-14
      1.75289821635250E-10   2.07444432357784E-17   1.75274101992267E-10   2.27356324195664E-13   0.00000000000000E+00
      0.00000000000000E+00   0.00000000000000E+00  -7.80201784257750E-13   9.70445753126667E-11   5.68168413630462E-08
      5.69131057365746E-08  -4.20037382038885E-13  -2.00000000000000E+01  -2.00000000000000E+01   0.00000000000000E+00
     -2.70748141552936E-08  -1.77002556903763E-14  -3.72679617058302E-08  -6.43427935613795E-08  -4.18793408549545E-13
      8.00000000000000E-01   8.00000000000000E-01   0.00000000000000E+00  -7.02274145544295E-14   6.28455840369353E-09
      2.07444777825931E-17   6.28448819702346E-09   1.90094949395962E-13
      1.44531250000000E-09
      8.00000000000000E-01   8.00000000000000E-01   0.00000000000000E+00  -3.36603164950614E-14   4.23135545969943E-10
      2.07444441635228E-17   4.23101906397892E-10   1.73024301484663E-13   8.00000000000000E-01   8.00000000000000E-01
      0.00000000000000E+00  -3.37106169591207E-14   4.23395572048843E-10   2.07444441367657E-17   4.23361882176328E-10
      2.48355279394736E-13   8.00000000000000E-01   8.00000000000000E-01   0.00000000000000E+00  -1.67012473027524E-14
      1.44318614673882E-10   2.07444431648220E-17   1.44301934171022E-10   2.27356335418924E-13   0.00000000000000E+00
      0.00000000000000E+00   0.00000000000000E+00  -7.52345447502305E-13   5.30565513700433E-11   5.57751259693823E-08
      5.58274301753048E-08  -4.20033107392332E-13  -2.00000000000000E+01  -2.00000000000000E+01   0.00000000000000E+00
     -2.57949263856443E-08  -1.77003264670505E-14  -3.71500000491360E-08  -6.29449441351068E-08  -4.18795267001056E-13
      8.00000000000000E-01   8.00000000000000E-01   0.00000000000000E+00  -9.44905504750385E-14   6.12684270686305E-09
      2.07444591683956E-17   6.12674823705703E-09   1.90092458095065E-13
      1.49804687500000E-09
      8.00000000000000E-01   8.00000000000000E-01   0.00000000000000E+00  -3.45391158316714E-14   3.74348587492664E-10
      2.07444440484333E-17   3.74314069121276E-10   1.73024322504508E-13   8.00000000000000E-01   8.00000000000000E-01
      0.00000000000000E+00  -3.46232606641679E-14   3.74603667490926E-10   2.07444440215542E-17   3.74569064974706E-10
      2.48355300427857E-13   8.00000000000000E-01   8.00000000000000E-01   0.00000000000000E+00  -1.68476563145045E-14
      1.20304608163830E-10   2.07444431058142E-17   1.20287781251958E-10   2.27356342380007E-13   0.00000000000000E+00
      0.00000000000000E+00   0.00000000000000E+00  -7.45517697995651E-13   3.39594486073644E-11   5.50046682495040E-08
      5.50378821804133E-08  -4.20030021855778E-13  -2.00000000000000E+01  -2.00000000000000E+01   0.00000000000000E+00
     -2.48845687934886E-08  -1.77003736340808E-14  -3.70053674510665E-08  -6.18899539449287E-08  -4.18796603196606E-13
      8.00000000000000E-01   8.00000000000000E-01   0.00000000000000E+00  -1.06656710184262E-13   5.98300748513321E-09
      2.07444743579131E-17   5.98290084916750E-09   1.90090659740013E-13
      1.53759765625000E-09
      8.00000000000000E-01   8.00000000000000E-01   0.00000000000000E+00  -3.49213780471582E-14   3.37115014248548E-10
      2.07444439559872E-17   3.37080113614944E-10   1.73024336563176E-13   8.00000000000000E-01   8.00000000000000E-01
      0.00000000000000E+00  -3.49370522809702E-14   3.37367043026532E-10   2.07444439281776E-17   3.37332126718695E-10
      2.48355314496226E-13   8.00000000000000E-01   8.00000000000000E-01   0.00000000000000E+00  -1.68937037725926E-14
      1.02206428818792E-10   2.07444430600106E-17   1.02189555859462E-10   2.27356346765924E-13   0.00000000000000E+00
      0.00000000000000E+00   0.00000000000000E+00  -7.27133683064075E-13   2.43809207162642E-11   5.44328771579834E-08
      5.44565309450166E-08  -4.20027762969316E-13  -2.00000000000000E+01  -2.00000000000000E+01   0.00000000000000E+00
     -2.42236262893848E-08  -1.77004074636706E-14  -3.68741573907130E-08  -6.10978013805052E-08  -4.18797574302203E-13
      8.00000000000000E-01   8.00000000000000E-01   0.00000000000000E+00  -1.13976203073789E-13   5.86478259475450E-09
      2.07444715521139E-17   5.86466863929590E-09   1.90089339446195E-13
      1.59692382812500E-09
      8.00000000000000E-01   8.00000000000000E-01   0.00000000000000E+00  -3.48250978948077E-14   2.81003599616219E-10
      2.07444438124019E-17   2.80968795262767E-10   1.73024354876465E-13   8.00000000000000E-01   8.00000000000000E-01
      0.00000000000000E+00  -3.48249965637277E-14   2.81252326475121E-10   2.07444437850001E-17   2.81217522223001E-10
      2.48355332823729E-13   8.00000000000000E-01   8.00000000000000E-01   0.00000000000000E+00  -1.65537434354441E-14
      7.52769879147608E-11   2.07444429888820E-17   7.52604549157683E-11   2.27356352005951E-13   0.00000000000000E+00
      0.00000000000000E+00   0.00000000000000E+00  -7.25522319004594E-13   1.48321295701631E-11   5.35855529681842E-08
      5.35996595754353E-08  -4.20024450010234E-13  -2.00000000000000E+01  -2.00000000000000E+01   0.00000000000000E+00
     -2.32608014552195E-08  -1.77004561884330E-14  -3.66506500086489E-08  -5.99114691643247E-08  -4.18798982757364E-13
      8.00000000000000E-01   8.00000000000000E-01   0.00000000000000E+00  -1.22689693558890E-13   5.67448548543685E-09
      2.07444644405719E-17   5.67436281648775E-09   1.90087393061455E-13
      1.64141845703125E-09
      8.00000000000000E-01   8.00000000000000E-01   0.00000000000000E+00  -3.45531779725429E-14   2.39099698683106E-10
      2.07444437020750E-17   2.39065166249577E-10   1.73024366426861E-13   8.00000000000000E-01   8.00000000000000E-01
      0.00000000000000E+00  -3.45818629947939E-14   2.39346936901305E-10   2.07444436743232E-17   2.39312375782754E-10
      2.48355344384569E-13   8.00000000000000E-01   8.00000000000000E-01   0.00000000000000E+00  -1.62503247874955E-14
      5.54284544137624E-11   2.07444429345397E-17   5.54122248334178E-11   2.27356354893852E-13   0.00000000000000E+00
      0.00000000000000E+00   0.00000000000000E+00  -7.18627266773309E-13   1.02591939398122E-11   5.29585586456472E-08
      5.29680992123202E-08  -4.20022017911084E-13  -2.00000000000000E+01  -2.00000000000000E+01   0.00000000000000E+00
     -2.25580949229231E-08  -1.77004912550105E-14  -3.64668923883991E-08  -5.90250050118134E-08  -4.18800002076043E-13
      8.00000000000000E-01   8.00000000000000E-01   0.00000000000000E+00  -1.28104057362870E-13   5.52324411594060E-09
      2.07444547216770E-17   5.52311603262769E-09   1.90085954281845E-13
      1.70816040039063E-09
      8.00000000000000E-01   8.00000000000000E-01   0.00000000000000E+00  -3.38064994606770E-14   1.77166561770896E-10
      2.07444435342105E-17   1.77132776015879E-10   1.73024380279526E-13   8.00000000000000E-01   8.00000000000000E-01
      0.00000000000000E+00  -3.38059325003016E-14   1.77413149461665E-10   2.07444435069828E-17   1.77379364273608E-10
      2.48355358252671E-13   8.00000000000000E-01   8.00000000000000E-01   0.00000000000000E+00  -1.56309345059481E-14
      2.65017074680879E-11   2.07444428539742E-17   2.64860972780248E-11   2.27356357593799E-13   0.00000000000000E+00
      0.00000000000000E+00   0.00000000000000E+00  -6.99824968054728E-13   5.89675686537871E-12   5.20322048020797E-08
      5.20374017339770E-08  -4.20018443634695E-13  -2.00000000000000E+01  -2.00000000000000E+01   0.00000000000000E+00
     -2.15304164063057E-08  -1.77005416203188E-14  -3.61731340308846E-08  -5.77035681377320E-08  -4.18801473268262E-13
      8.00000000000000E-01   8.00000000000000E-01   0.00000000000000E+00  -1.34864587721970E-13   5.28530301003090E-09
      2.07444589709036E-17   5.28516816618764E-09   1.90083820776962E-13
      1.80827331542969E-09
      8.00000000000000E-01   8.00000000000000E-01   0.00000000000000E+00  -3.21087381588337E-14   8.75659502373520E-11
      2.07444432836047E-17   8.75338622436364E-11   1.73024393450068E-13   8.00000000000000E-01   8.00000000000000E-01
      0.00000000000000E+00  -3.21239775621544E-14   8.78149923725091E-11   2.07444432573675E-17   8.77828891393902E-11
      2.48355371446151E-13   8.00000000000000E-01   8.00000000000000E-01   0.00000000000000E+00  -1.44770325564582E-14
     -1.44558030473860E-11   2.07444427365673E-17  -1.44702593354998E-11   2.27356358132845E-13   0.00000000000000E+00
      0.00000000000000E+00   0.00000000000000E+00  -6.79000735826388E-13   2.54907828142519E-12   5.06746586258888E-08
      5.06765287034344E-08  -4.20013229460892E-13  -2.00000000000000E+01  -2.00000000000000E+01   0.00000000000000E+00
     -2.00399455269265E-08  -1.77006123894771E-14  -3.57055788586912E-08  -5.57455420862301E-08  -4.18803553891352E-13
      8.00000000000000E-01   8.00000000000000E-01   0.00000000000000E+00  -1.42797698325110E-13   4.90830966770220E-09
      2.07444695671208E-17   4.90816689074835E-09   1.90080660323181E-13
      1.88335800170898E-09
      8.00000000000000E-01   8.00000000000000E-01   0.00000000000000E+00  -3.05454240893733E-14   2.37433235611025E-11
      2.07444430995748E-17   2.37127988814563E-11   1.73024397566846E-13   8.00000000000000E-01   8.00000000000000E-01
      0.00000000000000E+00  -3.05581635592871E-14   2.39967349297193E-11   2.07444430732480E-17   2.39661975106031E-11
      2.48355375580203E-13   8.00000000000000E-01   8.00000000000000E-01   0.00000000000000E+00  -1.34988456022669E-14
     -4.29396233928657E-11   2.07444426504818E-17  -4.29531014940254E-11   2.27356355931573E-13   0.00000000000000E+00
      0.00000000000000E+00   0.00000000000000E+00  -6.58514719458346E-13   1.37744726845583E-12   4.96810952710790E-08
      4.96818142036280E-08  -4.20009423699014E-13  -2.00000000000000E+01  -2.00000000000000E+01   0.00000000000000E+00
     -1.89575139942134E-08  -1.77006618757298E-14  -3.53417873791946E-08  -5.42993190740699E-08  -4.18805017856888E-13
      8.00000000000000E-01   8.00000000000000E-01   0.00000000000000E+00  -1.47044489853572E-13   4.61292599928917E-09
      2.07444684488459E-17   4.61277897554379E-09   1.90078312477276E-13
      1.99598503112793E-09
      8.00000000000000E-01   8.00000000000000E-01   0.00000000000000E+00  -2.78010147639959E-14  -6.53832228063958E-11
      2.07444428355694E-17  -6.54110030767170E-11   1.73024395096546E-13   8.00000000000000E-01   8.00000000000000E-01
      0.00000000000000E+00  -2.78072583212439E-14  -6.51195903100656E-11   2.07444428080843E-17  -6.51473768239440E-11
      2.48355373136406E-13   8.00000000000000E-01   8.00000000000000E-01   0.00000000000000E+00  -1.18665486462117E-14
     -8.16451626463930E-11   2.07444425319781E-17  -8.16570084505967E-11   2.27356348829162E-13   0.00000000000000E+00
      0.00000000000000E+00   0.00000000000000E+00  -6.39769382555375E-13   5.38475341556841E-13   4.82276393041188E-08
      4.82275380100778E-08  -4.20003868402603E-13  -2.00000000000000E+01  -2.00000000000000E+01   0.00000000000000E+00
     -1.73842816040212E-08  -1.77007306420682E-14  -3.47858826082542E-08  -5.21701819130061E-08  -4.18807064111825E-13
      8.00000000000000E-01   8.00000000000000E-01   0.00000000000000E+00  -1.52443692978858E-13   4.15501171422804E-09
      2.07444611620185E-17   4.15485929127952E-09   1.90074815452313E-13
      2.08045530319214E-09
      8.00000000000000E-01   8.00000000000000E-01   0.00000000000000E+00  -2.55544966700117E-14  -1.26493665179181E-10
      2.07444426489895E-17  -1.26519198931408E-10   1.73024386905850E-13   8.00000000000000E-01   8.00000000000000E-01
      0.00000000000000E+00  -2.55748645314717E-14  -1.26219776392220E-10   2.07444426224652E-17  -1.26245330512309E-10
      2.48355364966335E-13   8.00000000000000E-01   8.00000000000000E-01   0.00000000000000E+00  -1.06016092752638E-14
     -1.07353440918514E-10   2.07444424508282E-17  -1.07364021783347E-10   2.27356340787851E-13   0.00000000000000E+00
      0.00000000000000E+00   0.00000000000000E+00  -6.22858872450492E-13   2.70158665795206E-13   4.71642707325389E-08
      4.71639180323322E-08  -4.19999816213951E-13  -2.00000000000000E+01  -2.00000000000000E+01   0.00000000000000E+00
     -1.62414616426128E-08  -1.77007780896604E-14  -3.43652296292167E-08  -5.06067089726076E-08  -4.18808484188981E-13
      8.00000000000000E-01   8.00000000000000E-01   0.00000000000000E+00  -1.54930420636762E-13   3.80307440117896E-09
      2.07444622692105E-17   3.80291949150278E-09   1.90072207742893E-13
      2.20716071128845E-09
      8.00000000000000E-01   8.00000000000000E-01   0.00000000000000E+00  -2.20060382961099E-14  -2.08219429725824E-10
      2.07444423919702E-17  -2.08241415019677E-10   1.73024365527289E-13   8.00000000000000E-01   8.00000000000000E-01
      0.00000000000000E+00  -2.20197546782922E-14  -2.07926869589341E-10   2.07444423665644E-17  -2.07948868599576E-10
      2.48355343620428E-13   8.00000000000000E-01   8.00000000000000E-01   0.00000000000000E+00  -8.68726898903827E-15
     -1.40455484814422E-10   2.07444423425301E-17  -1.40464151338969E-10   2.27356324978878E-13   0.00000000000000E+00
      0.00000000000000E+00   0.00000000000000E+00  -6.12695316090446E-13   9.29971913345232E-14   4.56067065378041E-08
      4.56061868396793E-08  -4.19993912081971E-13  -2.00000000000000E+01  -2.00000000000000E+01   0.00000000000000E+00
     -1.45833050137605E-08  -1.77008429572635E-14  -3.37339644067564E-08  -4.83172871213598E-08  -4.18810436663520E-13
      8.00000000000000E-01   8.00000000000000E-01   0.00000000000000E+00  -1.56581500928530E-13   3.26791127739509E-09
      2.07444550945000E-17   3.26775471663861E-09   1.90068314618894E-13
      2.30218976736069E-09
      8.00000000000000E-01   8.00000000000000E-01   0.00000000000000E+00  -1.92885269407630E-14  -2.61436330186465E-10
      2.07444422193351E-17  -2.61455597968963E-10   1.73024343099941E-13   8.00000000000000E-01   8.00000000000000E-01
      0.00000000000000E+00  -1.92828479620430E-14  -2.61127750766999E-10   2.07444421926052E-17  -2.61147012870519E-10
      2.48355321219192E-13   8.00000000000000E-01   8.00000000000000E-01   0.00000000000000E+00  -7.27308237369087E-15
     -1.61012485181148E-10   2.07444422725847E-17  -1.61019737519080E-10   2.27356310584020E-13   0.00000000000000E+00
      0.00000000000000E+00   0.00000000000000E+00  -6.01631638156033E-13   4.22032860024096E-14   4.44643257566279E-08
      4.44637663282758E-08  -4.19989616664809E-13  -2.00000000000000E+01  -2.00000000000000E+01   0.00000000000000E+00
     -1.33824527935104E-08  -1.77008868398447E-14  -3.32624863077597E-08  -4.66449568021569E-08  -4.18811765296696E-13
      8.00000000000000E-01   8.00000000000000E-01   0.00000000000000E+00  -1.56249985387076E-13   2.86496905148071E-09
      2.07444553065402E-17   2.86481282223978E-09   1.90065407058354E-13
      2.44473335146904E-09
      8.00000000000000E-01   8.00000000000000E-01   0.00000000000000E+00  -1.52301785833772E-14  -3.28147430146511E-10
      2.07444419937210E-17  -3.28162639580652E-10   1.73024300856230E-13   8.00000000000000E-01   8.00000000000000E-01
      0.00000000000000E+00  -1.52260596426099E-14  -3.27813126960379E-10   2.07444419686512E-17  -3.27828332275580E-10
      2.48355279017660E-13   8.00000000000000E-01   8.00000000000000E-01   0.00000000000000E+00  -5.25436810977537E-15
     -1.85231765171203E-10   2.07444421844050E-17  -1.85236998794871E-10   2.27356285775455E-13   0.00000000000000E+00
      0.00000000000000E+00   0.00000000000000E+00  -5.91569884934892E-13   1.17259103643064E-14   4.27844278988590E-08
      4.27838480548844E-08  -4.19983379681550E-13  -2.00000000000000E+01  -2.00000000000000E+01   0.00000000000000E+00
     -1.16479531661393E-08  -1.77009453846093E-14  -3.25612949465569E-08  -4.42092658136416E-08  -4.18813548773641E-13
      8.00000000000000E-01   8.00000000000000E-01   0.00000000000000E+00  -1.53227446887322E-13   2.26679893611071E-09
      2.07444565174388E-17   2.26664572940828E-09   1.90061062805846E-13
      2.55164103955031E-09
      8.00000000000000E-01   8.00000000000000E-01   0.00000000000000E+00  -1.22674258734295E-14  -3.67995773141944E-10
      2.07444418520794E-17  -3.68008019823376E-10   1.73024263509434E-13   8.00000000000000E-01   8.00000000000000E-01
      0.00000000000000E+00  -1.22852687091363E-14  -3.67642071618952E-10   2.07444418265737E-17  -3.67654336143219E-10
      2.48355241704988E-13   8.00000000000000E-01   8.00000000000000E-01   0.00000000000000E+00  -3.86600806784075E-15
     -1.98444006939911E-10   2.07444421323253E-17  -1.98447852203536E-10   2.27356265185687E-13   0.00000000000000E+00
      0.00000000000000E+00   0.00000000000000E+00  -5.84423638205840E-13   4.07867208436728E-15   4.15460823063265E-08
      4.15455019613604E-08  -4.19978860771666E-13  -2.00000000000000E+01  -2.00000000000000E+01   0.00000000000000E+00
     -1.03988774714007E-08  -1.77009837981207E-14  -3.20412157551412E-08  -4.24401109275256E-08  -4.18814727059840E-13
      8.00000000000000E-01   8.00000000000000E-01   0.00000000000000E+00  -1.49024991548940E-13   1.82886817858258E-09
      2.07444541207456E-17   1.82871917433548E-09   1.90057817431398E-13
      2.71200257167220E-09
      8.00000000000000E-01   8.00000000000000E-01   0.00000000000000E+00  -8.02964475301014E-15  -4.12099742304575E-10
      2.07444416823893E-17  -4.12107751204886E-10   1.73024200693045E-13   8.00000000000000E-01   8.00000000000000E-01
      0.00000000000000E+00  -8.04148033286708E-15  -4.11719914795345E-10   2.07444416565894E-17  -4.11727935531236E-10
      2.48355178943652E-13   8.00000000000000E-01   8.00000000000000E-01   0.00000000000000E+00  -1.92434847190140E-15
     -2.10993667231205E-10   2.07444420745665E-17  -2.10995570835235E-10   2.27356232208594E-13   0.00000000000000E+00
      0.00000000000000E+00   0.00000000000000E+00  -5.80611349177051E-13  -2.34259084494223E-17   3.97134012091945E-08
      3.97128205744194E-08  -4.19972332110165E-13  -2.00000000000000E+01  -2.00000000000000E+01   0.00000000000000E+00
     -8.60724970241496E-09  -1.77010330650448E-14  -3.12718203757136E-08  -3.98790877791616E-08  -4.18816250313148E-13
      8.00000000000000E-01   8.00000000000000E-01   0.00000000000000E+00  -1.39637131214977E-13   1.20123807870036E-09
      2.07444543689861E-17   1.20109846231360E-09   1.90052970578021E-13
      2.83227372076362E-09
      8.00000000000000E-01   8.00000000000000E-01   0.00000000000000E+00  -5.10217894822007E-15  -4.33524303958175E-10
      2.07444415889365E-17  -4.33529385392682E-10   1.73024149687751E-13   8.00000000000000E-01   8.00000000000000E-01
      0.00000000000000E+00  -5.10454437255302E-15  -4.33129623667658E-10   2.07444415638886E-17  -4.33134707467589E-10
      2.48355127982291E-13   8.00000000000000E-01   8.00000000000000E-01   0.00000000000000E+00  -6.43817268004825E-16
     -2.15204554565979E-10   2.07444420479367E-17  -2.15205177638805E-10   2.27356206491342E-13   0.00000000000000E+00
      0.00000000000000E+00   0.00000000000000E+00  -5.78396993571262E-13  -8.97637615580893E-16   3.83525286492065E-08
      3.83519493545753E-08  -4.19967629679315E-13  -2.00000000000000E+01  -2.00000000000000E+01   0.00000000000000E+00
     -7.32747710298462E-09  -1.77010637394729E-14  -3.07037023467413E-08  -3.80311971507896E-08  -4.18817208276259E-13
      8.00000000000000E-01   8.00000000000000E-01   0.00000000000000E+00  -1.30330579731704E-13   7.61247376548799E-10
      2.07444402613172E-17   7.61117066713507E-10   1.90049353794189E-13
      3.01268044440076E-09
      8.00000000000000E-01   8.00000000000000E-01   0.00000000000000E+00  -1.16775847548016E-15  -4.48741905684712E-10
      2.07444414975396E-17  -4.48743052698746E-10   1.73024069806734E-13   8.00000000000000E-01   8.00000000000000E-01
      0.00000000000000E+00  -1.16392711187581E-15  -4.48338045079517E-10   2.07444414724621E-17  -4.48339188262188E-10
      2.48355048169785E-13   8.00000000000000E-01   8.00000000000000E-01   0.00000000000000E+00   9.73720193207542E-16
     -2.14343162998314E-10   2.07444420286136E-17  -2.14342168533679E-10   2.27356167588311E-13   0.00000000000000E+00
      0.00000000000000E+00   0.00000000000000E+00  -5.73693574485624E-13  -1.30927813200887E-15   3.63222659187106E-08
      3.63216909158580E-08  -4.19960884415989E-13  -2.00000000000000E+01  -2.00000000000000E+01   0.00000000000000E+00
     -5.50938838892642E-09  -1.77011002853484E-14  -2.98664584349843E-08  -3.53758645250110E-08  -4.18818365266683E-13
      8.00000000000000E-01   8.00000000000000E-01   0.00000000000000E+00  -1.13164499833682E-13   1.65711162403035E-10
      2.07444567942639E-17   1.65598018647658E-10   1.90043964117839E-13
      3.14798548712861E-09
      8.00000000000000E-01   8.00000000000000E-01   0.00000000000000E+00   1.42021903828398E-15  -4.48202481612858E-10
      2.07444414656454E-17  -4.48201040649378E-10   1.73024008965657E-13   8.00000000000000E-01   8.00000000000000E-01
      0.00000000000000E+00   1.41094990746140E-15  -4.47805610258577E-10   2.07444414403107E-17  -4.47804178564228E-10
      2.48354987380501E-13   8.00000000000000E-01   8.00000000000000E-01   0.00000000000000E+00   1.99865935319485E-15
     -2.08841002597622E-10   2.07444420291890E-17  -2.08838983193826E-10   2.27356138869622E-13   0.00000000000000E+00
      0.00000000000000E+00   0.00000000000000E+00  -5.77364656341069E-13  -1.38092993833002E-15   3.48025529520250E-08
      3.48019742064387E-08  -4.19956067136455E-13  -2.00000000000000E+01  -2.00000000000000E+01   0.00000000000000E+00
     -4.22510325260518E-09  -1.77011206385435E-14  -2.92504336565140E-08  -3.34755546102398E-08  -4.18819023437724E-13
      8.00000000000000E-01   8.00000000000000E-01   0.00000000000000E+00  -9.80865815943244E-14  -2.21477327954283E-10
      2.07444453641478E-17  -2.21575393791432E-10   1.90039955358398E-13
      3.35094305122038E-09
      8.00000000000000E-01   8.00000000000000E-01   0.00000000000000E+00   4.64607220593546E-15  -4.31302356090937E-10
      2.07444414691886E-17  -4.31297689274290E-10   1.73023919415545E-13   8.00000000000000E-01   8.00000000000000E-01
      0.00000000000000E+00   4.63812922260508E-15  -4.30944484103546E-10   2.07444414442439E-17  -4.30939825229881E-10
      2.48354897904096E-13   8.00000000000000E-01   8.00000000000000E-01   0.00000000000000E+00   3.20743666376758E-15
     -1.94432592984714E-10   2.07444420522201E-17  -1.94429364803608E-10   2.27356097794282E-13   0.00000000000000E+00
      0.00000000000000E+00   0.00000000000000E+00  -5.79236615253851E-13  -1.40991767314734E-15   3.25195518748884E-08
      3.25189712283554E-08  -4.19949228897456E-13  -2.00000000000000E+01  -2.00000000000000E+01   0.00000000000000E+00
     -2.42465431067763E-09  -1.77011406529357E-14  -2.83456203111095E-08  -3.07702923229278E-08  -4.18819696937962E-13
      8.00000000000000E-01   8.00000000000000E-01   0.00000000000000E+00  -7.29861784003495E-14  -6.91939060685947E-10
      2.07444481085531E-17  -6.92012026119899E-10   1.90034010721497E-13
      3.50316122428922E-09
      8.00000000000000E-01   8.00000000000000E-01   0.00000000000000E+00   6.54926548776104E-15  -4.08069911867074E-10
      2.07444415062008E-17  -4.08063341857145E-10   1.73023855380312E-13   8.00000000000000E-01   8.00000000000000E-01
      0.00000000000000E+00   6.54401970347420E-15  -4.07765863140901E-10   2.07444414809573E-17  -4.07759298376756E-10
      2.48354833917362E-13   8.00000000000000E-01   8.00000000000000E-01   0.00000000000000E+00   3.85382944515178E-15
     -1.79808288209687E-10   2.07444420820690E-17  -1.79804413635800E-10   2.27356069227011E-13   0.00000000000000E+00
      0.00000000000000E+00   0.00000000000000E+00  -5.76066216623441E-13  -1.41380730286251E-15   3.08022210567730E-08
      3.08016435767491E-08  -4.19944405839011E-13  -2.00000000000000E+01  -2.00000000000000E+01   0.00000000000000E+00
     -1.17268186894955E-09  -1.77011479171007E-14  -2.76820659102866E-08  -2.88547654803841E-08  -4.18819970180587E-13
      8.00000000000000E-01   8.00000000000000E-01   0.00000000000000E+00  -5.28922076693931E-14  -9.51198171032210E-10
      2.07444378363234E-17  -9.51251042495442E-10   1.90029617494910E-13
      3.73148848389246E-09
      8.00000000000000E-01   8.00000000000000E-01   0.00000000000000E+00   8.66427220145383E-15  -3.60647543460502E-10
      2.07444416051249E-17  -3.60638858443859E-10   1.73023767363333E-13   8.00000000000000E-01   8.00000000000000E-01
      0.00000000000000E+00   8.64183969102131E-15  -3.60461980378194E-10   2.07444415790071E-17  -3.60453317794061E-10
      2.48354745954251E-13   8.00000000000000E-01   8.00000000000000E-01   0.00000000000000E+00   4.52509504103485E-15
     -1.53727461151155E-10   2.07444421424669E-17  -1.53722915311672E-10   2.27356031019191E-13   0.00000000000000E+00
      0.00000000000000E+00   0.00000000000000E+00  -5.82280932887251E-13  -1.41511448891913E-15   2.82201652013291E-08
      2.82195815052817E-08  -4.19937663464664E-13  -2.00000000000000E+01  -2.00000000000000E+01   0.00000000000000E+00
      5.48752558101099E-10  -1.77011474794112E-14  -2.67106432907088E-08  -2.61619084337551E-08  -4.18820039579186E-13
      8.00000000000000E-01   8.00000000000000E-01   0.00000000000000E+00  -2.22361476802045E-14  -1.18283576457377E-09
      2.07444311923660E-17  -1.18285797997702E-09   1.90023158707075E-13
      3.90273392859490E-09
      8.00000000000000E-01   8.00000000000000E-01   0.00000000000000E+00   9.67377088569723E-15  -3.17915620881065E-10
      2.07444417056181E-17  -3.17905926365737E-10   1.73023709141809E-13   8.00000000000000E-01   8.00000000000000E-01
      0.00000000000000E+00   9.64611997575746E-15  -3.17842557098763E-10   2.07444416796382E-17  -3.17832890234346E-10
      2.48354687753608E-13   8.00000000000000E-01   8.00000000000000E-01   0.00000000000000E+00   4.77592889644858E-15
     -1.32063558817055E-10   2.07444421964631E-17  -1.32058762143716E-10   2.27356006477437E-13   0.00000000000000E+00
      0.00000000000000E+00   0.00000000000000E+00  -5.77679701718052E-13  -1.41523284194647E-15   2.62849360204574E-08
      2.62843569255228E-08  -4.19932994385365E-13  -2.00000000000000E+01  -2.00000000000000E+01   0.00000000000000E+00
      1.71743975377157E-09  -1.77011389539738E-14  -2.60006344217185E-08  -2.42832123690859E-08  -4.18819844774646E-13
      8.00000000000000E-01   8.00000000000000E-01   0.00000000000000E+00   1.48636596985515E-16  -1.23334714707436E-09