DF-ISE text

Info {
  version   = 1.0
  type      = xyplot
  datasets  = [
    "time"
    "Ntop_0_1 OuterVoltage" "Ntop_0_1 InnerVoltage" "Ntop_0_1 QuasiFermiPotential" "Ntop_0_1 DisplacementCurrent" "Ntop_0_1 eCurrent"
    "Ntop_0_1 hCurrent" "Ntop_0_1 TotalCurrent" "Ntop_0_1 Charge" "Ntop_1_0 OuterVoltage" "Ntop_1_0 InnerVoltage"
    "Ntop_1_0 QuasiFermiPotential" "Ntop_1_0 DisplacementCurrent" "Ntop_1_0 eCurrent" "Ntop_1_0 hCurrent" "Ntop_1_0 TotalCurrent"
    "Ntop_1_0 Charge" "Ntop_1_1 OuterVoltage" "Ntop_1_1 InnerVoltage" "Ntop_1_1 QuasiFermiPotential" "Ntop_1_1 DisplacementCurrent"
    "Ntop_1_1 eCurrent" "Ntop_1_1 hCurrent" "Ntop_1_1 TotalCurrent" "Ntop_1_1 Charge" "Ptop OuterVoltage"
    "Ptop InnerVoltage" "Ptop QuasiFermiPotential" "Ptop DisplacementCurrent" "Ptop eCurrent" "Ptop hCurrent"
    "Ptop TotalCurrent" "Ptop Charge" "Pbot OuterVoltage" "Pbot InnerVoltage" "Pbot QuasiFermiPotential"
    "Pbot DisplacementCurrent" "Pbot eCurrent" "Pbot hCurrent" "Pbot TotalCurrent" "Pbot Charge"
    "Ntop_0_0 OuterVoltage" "Ntop_0_0 InnerVoltage" "Ntop_0_0 QuasiFermiPotential" "Ntop_0_0 DisplacementCurrent" "Ntop_0_0 eCurrent"
    "Ntop_0_0 hCurrent" "Ntop_0_0 TotalCurrent" "Ntop_0_0 Charge" ]
  functions = [
    Time
    OuterVoltage InnerVoltage QuasiFermiPotential DisplacementCurrent eCurrent
    hCurrent TotalCurrent Charge OuterVoltage InnerVoltage
    QuasiFermiPotential DisplacementCurrent eCurrent hCurrent TotalCurrent
    Charge OuterVoltage InnerVoltage QuasiFermiPotential DisplacementCurrent
    eCurrent hCurrent TotalCurrent Charge OuterVoltage
    InnerVoltage QuasiFermiPotential DisplacementCurrent eCurrent hCurrent
    TotalCurrent Charge OuterVoltage InnerVoltage QuasiFermiPotential
    DisplacementCurrent eCurrent hCurrent TotalCurrent Charge
    OuterVoltage InnerVoltage QuasiFermiPotential DisplacementCurrent eCurrent
    hCurrent TotalCurrent Charge ]
}

Data {
      5.00000000000000E-13
      8.00000000000000E-01   8.00000000000000E-01   0.00000000000000E+00   5.86666310086490E-15   2.06682111509992E-13
      2.07543999105882E-17   2.12569529010768E-13   1.83752004699432E-13   8.00000000000000E-01   8.00000000000000E-01
      0.00000000000000E+00   1.52574225721574E-14   2.09167832937129E-13   2.07544398031629E-17   2.24446009949089E-13
      2.59626839656832E-13   8.00000000000000E-01   8.00000000000000E-01   0.00000000000000E+00   1.18716084414602E-14
      2.08328388222173E-13   2.07542585208604E-17   2.20220750922154E-13   2.38466389908367E-13   0.00000000000000E+00
      0.00000000000000E+00   0.00000000000000E+00  -4.32890619830710E-13   1.82676257412178E-12   4.10283143038072E-07
      4.10284536910027E-07  -1.96120491226514E-13  -4.50000000000000E+01  -4.50000000000000E+01   0.00000000000000E+00
     -1.25053518329649E-13   3.62181385085189E-12  -4.10288909659786E-07  -4.10285412899454E-07  -6.86728655497482E-13
      8.00000000000000E-01   8.00000000000000E-01   0.00000000000000E+00   7.34092502896165E-15   2.11391458199120E-13
      2.07542497777393E-17   2.18753137477860E-13   2.01003912459364E-13
      1.25000000000000E-12
      8.00000000000000E-01   8.00000000000000E-01   0.00000000000000E+00   2.01273289410404E-15   2.10966550514130E-13
      2.07544084351480E-17   2.13000037816669E-13   1.83752004699433E-13   8.00000000000000E-01   8.00000000000000E-01
      0.00000000000000E+00   9.15456090276850E-16   2.10411930228478E-13   2.07540488715541E-17   2.11348140367627E-13
      2.59626839656833E-13   8.00000000000000E-01   8.00000000000000E-01   0.00000000000000E+00   1.25791126913091E-15
      2.08931095423295E-13   2.07543219371201E-17   2.10209761014363E-13   2.38466389908369E-13   0.00000000000000E+00
      0.00000000000000E+00   0.00000000000000E+00  -4.59689093304497E-13   8.43591996423976E-12   4.10277217919001E-07
      4.10285194149872E-07  -1.96120491226045E-13  -4.50000000000000E+01  -4.50000000000000E+01   0.00000000000000E+00
     -5.56890311926428E-13   1.67987803360316E-11  -4.10302302594070E-07  -4.10286060704046E-07  -6.86728655497718E-13
      8.00000000000000E-01   8.00000000000000E-01   0.00000000000000E+00   4.44497979845323E-15   2.27530502000363E-13
      2.07542805578208E-17   2.31996236079374E-13   2.01003912459129E-13
      2.37500000000000E-12
      8.00000000000000E-01   8.00000000000000E-01   0.00000000000000E+00   2.40848302240692E-15   2.36485683934581E-13
      2.07544040813358E-17   2.38914921361069E-13   1.83752004699449E-13   8.00000000000000E-01   8.00000000000000E-01
      0.00000000000000E+00   4.78405263709550E-15   2.36407091968040E-13   2.07538676353371E-17   2.41211898472771E-13
      2.59626839656849E-13   8.00000000000000E-01   8.00000000000000E-01   0.00000000000000E+00   2.54762451742623E-15
      2.21781740414876E-13   2.07542777872943E-17   2.24350119210090E-13   2.38466389908374E-13   0.00000000000000E+00
      0.00000000000000E+00   0.00000000000000E+00   7.72889620363211E-13   6.98292826181147E-11   4.10222434442237E-07
      4.10293036614476E-07  -1.96120491219087E-13  -4.50000000000000E+01  -4.50000000000000E+01   0.00000000000000E+00
     -6.11429069814683E-12   1.39131814558295E-10  -4.10427190574472E-07  -4.10294173050612E-07  -6.86728655501227E-13
      8.00000000000000E-01   8.00000000000000E-01   0.00000000000000E+00   1.03158367205801E-14   4.21622605426432E-13
      2.07542707973517E-17   4.31959196417809E-13   2.01003912455640E-13
      4.06250000000000E-12
      8.00000000000000E-01   8.00000000000000E-01   0.00000000000000E+00   1.71458796458815E-14   7.69129478051859E-13
      2.07543068316108E-17   7.86296112004573E-13   1.83752004699930E-13   8.00000000000000E-01   8.00000000000000E-01
      0.00000000000000E+00   1.80990089860383E-14   7.69147886279471E-13   2.07542300814796E-17   7.87267649495591E-13
      2.59626839657331E-13   8.00000000000000E-01   8.00000000000000E-01   0.00000000000000E+00   8.09329550327710E-15
      4.61141287247299E-13   2.07543071937215E-17   4.69255337057770E-13   2.38466389908592E-13   0.00000000000000E+00
      0.00000000000000E+00   0.00000000000000E+00   7.90470562680440E-12   1.05983417522646E-09   4.09398717286006E-07
      4.10466456166859E-07  -1.96120491011179E-13  -4.50000000000000E+01  -4.50000000000000E+01   0.00000000000000E+00
     -1.28666437323172E-10   2.10989194949066E-09  -4.12454458558666E-07  -4.10473233046499E-07  -6.86728655606100E-13
      8.00000000000000E-01   8.00000000000000E-01   0.00000000000000E+00   1.33730644540539E-13   4.60030914290358E-12
      2.07543189638829E-17   4.73406054176308E-12   2.01003912351427E-13
      6.59375000000000E-12
      8.00000000000000E-01   8.00000000000000E-01   0.00000000000000E+00   3.34045973345343E-13   1.64046791272718E-11
      2.07543535465736E-17   1.67387458549707E-11   1.83752004720223E-13   8.00000000000000E-01   8.00000000000000E-01
      0.00000000000000E+00   3.33761502463162E-13   1.64108844413869E-11   2.07542931238967E-17   1.67446666981431E-11
      2.59626839677638E-13   8.00000000000000E-01   8.00000000000000E-01   0.00000000000000E+00   1.49518544910918E-13
      7.50807006729128E-12   2.07543159209919E-17   7.65760936651812E-12   2.38466389917744E-13   0.00000000000000E+00
      0.00000000000000E+00   0.00000000000000E+00   1.57636199743783E-10   2.12260175249735E-08   3.94249709700999E-07
      4.15633363425716E-07  -1.96120482018130E-13  -4.50000000000000E+01  -4.50000000000000E+01   0.00000000000000E+00
     -3.77688455387279E-09   4.21871992220747E-08  -4.54214260170928E-07  -4.15803945502726E-07  -6.86728660144611E-13
      8.00000000000000E-01   8.00000000000000E-01   0.00000000000000E+00   2.60784280676280E-12   1.26833191527733E-10
      2.07542560430139E-17   1.29441055088752E-10   2.01003907847134E-13
      1.03906250000000E-11
      8.00000000000000E-01   8.00000000000000E-01   0.00000000000000E+00   2.73383898605780E-12   2.15031751857203E-10
      2.07542521694114E-17   2.17765611597513E-10   1.83752005143155E-13   8.00000000000000E-01   8.00000000000000E-01
      0.00000000000000E+00   2.73571794300636E-12   2.15118194499020E-10   2.07538600997733E-17   2.17853933195886E-10
      2.59626840100958E-13   8.00000000000000E-01   8.00000000000000E-01   0.00000000000000E+00   1.22751448848294E-12
      9.68913894820017E-11   2.07543412455249E-17   9.81189247248259E-11   2.38466390108262E-13   0.00000000000000E+00
      0.00000000000000E+00   0.00000000000000E+00   1.31027629974303E-09   1.76929053828125E-07   3.04400691405434E-07
      4.82640021533302E-07  -1.96120290195731E-13  -4.50000000000000E+01  -4.50000000000000E+01   0.00000000000000E+00
     -5.10267703089127E-08   3.50532960612806E-07  -7.84377007523229E-07  -4.84870817219335E-07  -6.86728757182601E-13
      8.00000000000000E-01   8.00000000000000E-01   0.00000000000000E+00   2.12664541160121E-11   1.67579074164420E-09
      2.07539552243269E-17   1.69705721651417E-09   2.01003812025956E-13
      1.60859375000000E-11
      8.00000000000000E-01   8.00000000000000E-01   0.00000000000000E+00   1.36602958277057E-12   4.99345622107946E-10
      2.07543338769511E-17   5.00711672445051E-10   1.83752007270065E-13   8.00000000000000E-01   8.00000000000000E-01
      0.00000000000000E+00   1.36645604878124E-12   4.99561183654899E-10   2.07541085927321E-17   5.00927660457789E-10
      2.59626842231128E-13   8.00000000000000E-01   8.00000000000000E-01   0.00000000000000E+00   6.07299094638906E-13
      2.24005508831079E-10   2.07543157325693E-17   2.24612828680033E-10   2.38466391063955E-13   0.00000000000000E+00
      0.00000000000000E+00   0.00000000000000E+00   6.90388212768447E-10   9.59134819058262E-08   4.88305579555964E-07
      5.84909449674558E-07  -1.96119300501478E-13  -4.50000000000000E+01  -4.50000000000000E+01   0.00000000000000E+00
     -1.22627086807604E-07   1.84706763018260E-07  -6.52106500771981E-07  -5.90026824561326E-07  -6.86729260230674E-13
      8.00000000000000E-01   8.00000000000000E-01   0.00000000000000E+00   1.06130095480634E-11   3.88050969488289E-09
      2.07546810109842E-17   3.89112272518563E-09   2.01003320167005E-13
      2.46289062500000E-11
      8.00000000000000E-01   8.00000000000000E-01   0.00000000000000E+00  -3.41267161075855E-14   6.01459578816741E-10
      2.07542796594648E-17   6.01425472854913E-10   1.83752012293545E-13   8.00000000000000E-01   8.00000000000000E-01
      0.00000000000000E+00  -3.40014897254689E-14   6.01740525726715E-10   2.07539742081445E-17   6.01706544990964E-10
      2.59626847268976E-13   8.00000000000000E-01   8.00000000000000E-01   0.00000000000000E+00  -2.22042142747674E-14
      2.68242038717612E-10   2.07542920413298E-17   2.68219855257630E-10   2.38466393313722E-13   0.00000000000000E+00
      0.00000000000000E+00   0.00000000000000E+00   1.52180693841330E-12   4.20867532839460E-09   6.22700991877056E-07
      6.26911189012389E-07  -1.96116979769372E-13  -4.50000000000000E+01  -4.50000000000000E+01   0.00000000000000E+00
     -1.50650081332514E-07   3.42234936310884E-10  -4.82764288311751E-07  -6.33072134707954E-07  -6.86730449081946E-13
      8.00000000000000E-01   8.00000000000000E-01   0.00000000000000E+00  -9.72445892344592E-14   4.68969104629610E-09
      2.07545130324614E-17   4.68959382246137E-09   2.01002175975076E-13
      3.74433593750000E-11
      8.00000000000000E-01   8.00000000000000E-01   0.00000000000000E+00  -1.71062469156527E-14   5.92741069227560E-10
      2.07542887568828E-17   5.92723983734934E-10   1.83752020705556E-13   8.00000000000000E-01   8.00000000000000E-01
      0.00000000000000E+00  -1.71142697279262E-14   5.93028079666722E-10   2.07548605746847E-17   5.93010986151854E-10
      2.59626855725036E-13   8.00000000000000E-01   8.00000000000000E-01   0.00000000000000E+00  -1.42393058343889E-14
      2.62023420648104E-10   2.07543357678746E-17   2.62009202096605E-10   2.38466397062378E-13   0.00000000000000E+00
      0.00000000000000E+00   0.00000000000000E+00  -1.70080594105929E-12   3.62282286187838E-09   6.23263339801358E-07
      6.26884461857295E-07  -1.96113284771651E-13  -4.50000000000000E+01  -4.50000000000000E+01   0.00000000000000E+00
     -1.48141717600358E-07  -2.49909873839674E-14  -4.84894244600117E-07  -6.33035987191463E-07  -6.86732363801506E-13
      8.00000000000000E-01   8.00000000000000E-01   0.00000000000000E+00   1.55164879975544E-13   4.70362597654956E-09
      2.07542100723650E-17   4.70378116218375E-09   2.01000375080188E-13
      5.66650390625000E-11
      8.00000000000000E-01   8.00000000000000E-01   0.00000000000000E+00  -4.88764901124488E-14   5.73486389931952E-10
      2.07542576698332E-17   5.73437534196097E-10   1.83752033861885E-13   8.00000000000000E-01   8.00000000000000E-01
      0.00000000000000E+00  -4.89881617194057E-14   5.73774279587389E-10   2.07542103900590E-17   5.73725312179880E-10
      2.59626868992537E-13   8.00000000000000E-01   8.00000000000000E-01   0.00000000000000E+00  -2.86484425888159E-14
      2.49951838183706E-10   2.07543030591403E-17   2.49923210495420E-10   2.38466402878329E-13   0.00000000000000E+00
      0.00000000000000E+00   0.00000000000000E+00  -2.40352202763234E-12   3.07429466784308E-09   6.22805367360973E-07
      6.25877258506788E-07  -1.96107941915224E-13  -4.50000000000000E+01  -4.50000000000000E+01   0.00000000000000E+00
     -1.44151126108699E-07  -2.49910836371120E-14  -4.87837982088787E-07  -6.31989133188570E-07  -6.86735172746763E-13
      8.00000000000000E-01   8.00000000000000E-01   0.00000000000000E+00  -5.03172535674319E-14   4.71483892140683E-09
      2.07542260592634E-17   4.71478862490749E-09   2.00997808929238E-13
      8.54975585937500E-11
      8.00000000000000E-01   8.00000000000000E-01   0.00000000000000E+00  -6.03414896990570E-14   5.29713214379742E-10
      2.07542813476777E-17   5.29652893644324E-10   1.83752054041355E-13   8.00000000000000E-01   8.00000000000000E-01
      0.00000000000000E+00  -6.04443561782587E-14   5.29996087447130E-10   2.07542476782229E-17   5.29935663845199E-10
      2.59626889421152E-13   8.00000000000000E-01   8.00000000000000E-01   0.00000000000000E+00  -3.35991480827345E-14
      2.25192683144536E-10   2.07543831003456E-17   2.25159104750837E-10   2.38466411673193E-13   0.00000000000000E+00
      0.00000000000000E+00   0.00000000000000E+00  -3.11697184991090E-12   2.40065101525361E-09   6.21578618440226E-07
      6.23976152483630E-07  -1.96100317342507E-13  -4.50000000000000E+01  -4.50000000000000E+01   0.00000000000000E+00
     -1.38681004879330E-07  -2.49911865781097E-14  -4.91226049422248E-07  -6.29907079292765E-07  -6.86739249361186E-13
      8.00000000000000E-01   8.00000000000000E-01   0.00000000000000E+00  -1.05250013959864E-13   4.64628437615805E-09
      2.07543404134739E-17   4.64617914689843E-09   2.00994211567993E-13
      1.28746337890625E-10
      8.00000000000000E-01   8.00000000000000E-01   0.00000000000000E+00  -6.66453292189920E-14   4.54242380033593E-10
      2.07543347092253E-17   4.54175755458709E-10   1.83752083650818E-13   8.00000000000000E-01   8.00000000000000E-01
      0.00000000000000E+00  -6.67499319964246E-14   4.54511577617970E-10   2.07544996178522E-17   4.54444848440474E-10
      2.59626919538110E-13   8.00000000000000E-01   8.00000000000000E-01   0.00000000000000E+00  -3.60412280674510E-14
      1.83980733039767E-10   2.07543455908536E-17   1.83944712566045E-10   2.38466424234479E-13   0.00000000000000E+00
      0.00000000000000E+00   0.00000000000000E+00  -3.40859061924245E-12   1.65433296254391E-09   6.19175432340820E-07
      6.20826356712745E-07  -1.96089594595393E-13  -4.50000000000000E+01  -4.50000000000000E+01   0.00000000000000E+00
     -1.31641648543625E-07  -2.49913334313594E-14  -4.94770966249843E-07  -6.26412639784802E-07  -6.86745092465080E-13
      8.00000000000000E-01   8.00000000000000E-01   0.00000000000000E+00  -1.40756405977327E-13   4.49385849124092E-09
      2.07542403541536E-17   4.49371775558918E-09   2.00989259637066E-13
      1.61182922363281E-10
      8.00000000000000E-01   8.00000000000000E-01   0.00000000000000E+00  -6.83017613100669E-14   3.94608172150064E-10
      2.07542731097702E-17   3.94539891143027E-10   1.83752104442251E-13   8.00000000000000E-01   8.00000000000000E-01
      0.00000000000000E+00  -6.82929893801231E-14   3.94864435640759E-10   2.07542584250934E-17   3.94796163405638E-10
      2.59626940783963E-13   8.00000000000000E-01   8.00000000000000E-01   0.00000000000000E+00  -3.64233742486514E-14
      1.52019567209526E-10   2.07543270638221E-17   1.51983164589605E-10   2.38466432732834E-13   0.00000000000000E+00
      0.00000000000000E+00   0.00000000000000E+00  -3.49427065563098E-12   1.25315867022340E-09   6.17166901444697E-07
      6.18416565844265E-07  -1.96082015321060E-13  -4.50000000000000E+01  -4.50000000000000E+01   0.00000000000000E+00
     -1.27162051108190E-07  -2.49914382448491E-14  -4.96556625597609E-07  -6.23718701697238E-07  -6.86749289026894E-13
      8.00000000000000E-01   8.00000000000000E-01   0.00000000000000E+00  -1.53726119898834E-13   4.36097033919871E-09
      2.07542967534575E-17   4.36081663383311E-09   2.00985826388908E-13
      2.09837799072266E-10
      8.00000000000000E-01   8.00000000000000E-01   0.00000000000000E+00  -6.95095031172516E-14   3.03465985560320E-10
      2.07541347227485E-17   3.03396496811337E-10   1.83752132143146E-13   8.00000000000000E-01   8.00000000000000E-01
      0.00000000000000E+00  -6.96161765005398E-14   3.03701983003517E-10   2.07540787222225E-17   3.03632387581095E-10
      2.59626969242564E-13   8.00000000000000E-01   8.00000000000000E-01   0.00000000000000E+00  -3.65862550790216E-14
      1.03834953798954E-10   2.07543189562924E-17   1.03798388298194E-10   2.38466443430853E-13   0.00000000000000E+00
      0.00000000000000E+00   0.00000000000000E+00  -3.61650297525111E-12   8.26839474150022E-10   6.13954397127834E-07
      6.14777620099009E-07  -1.96071248226052E-13  -4.50000000000000E+01  -4.50000000000000E+01   0.00000000000000E+00
     -1.21342397073707E-07  -2.49915881219447E-14  -4.98290349023900E-07  -6.19632771089195E-07  -6.86755332684533E-13
      8.00000000000000E-01   8.00000000000000E-01   0.00000000000000E+00  -1.68082494900652E-13   4.14449177923383E-09
      2.07543242852586E-17   4.14432371749325E-09   2.00981036094024E-13
      2.46328956604004E-10
      8.00000000000000E-01   8.00000000000000E-01   0.00000000000000E+00  -6.93716137455072E-14   2.34740419191195E-10
      2.07542514634964E-17   2.34671068331701E-10   1.83752149675520E-13   8.00000000000000E-01   8.00000000000000E-01
      0.00000000000000E+00  -6.94256908525623E-14   2.34961752048847E-10   2.07543220723020E-17   2.34892347112316E-10
      2.59626987386339E-13   8.00000000000000E-01   8.00000000000000E-01   0.00000000000000E+00  -3.60690372155673E-14
      6.79588432456038E-11   2.07542980154871E-17   6.79227949626862E-11   2.38466449614936E-13   0.00000000000000E+00
      0.00000000000000E+00   0.00000000000000E+00  -3.71863533911400E-12   6.07534849106103E-10   6.11420616844708E-07
      6.12024433058475E-07  -1.96063584636484E-13  -4.50000000000000E+01  -4.50000000000000E+01   0.00000000000000E+00
     -1.17475744699451E-07  -2.49916953922038E-14  -4.99058095684454E-07  -6.16533865375601E-07  -6.86759689558189E-13
      8.00000000000000E-01   8.00000000000000E-01   0.00000000000000E+00  -1.75670381917042E-13   3.97212175634697E-09
      2.07543469924141E-17   3.97194610671940E-09   2.00977687517881E-13
      3.01065692901611E-10
      8.00000000000000E-01   8.00000000000000E-01   0.00000000000000E+00  -6.83984296656348E-14   1.32487976035346E-10
      2.07543697321641E-17   1.32419598360050E-10   1.83752170116110E-13   8.00000000000000E-01   8.00000000000000E-01
      0.00000000000000E+00  -6.83573432380162E-14   1.32688991005324E-10   2.07544571754787E-17   1.32620654416543E-10
      2.59627008791216E-13   8.00000000000000E-01   8.00000000000000E-01   0.00000000000000E+00  -3.49422623448171E-14
      1.52807759492714E-11   2.07542840784658E-17   1.52458544412106E-11   2.38466455661884E-13   0.00000000000000E+00
      0.00000000000000E+00   0.00000000000000E+00  -3.80538959630642E-12   3.83588010921901E-10   6.07472135523225E-07
      6.07851918144550E-07  -1.96052656100980E-13  -4.50000000000000E+01  -4.50000000000000E+01   0.00000000000000E+00
     -1.12166255770359E-07  -2.49918490426841E-14  -4.99666893394344E-07  -6.11833174156552E-07  -6.86765973409641E-13
      8.00000000000000E-01   8.00000000000000E-01   0.00000000000000E+00  -1.85663597983736E-13   3.70115554762764E-09
      2.07542894962853E-17   3.70096990478395E-09   2.00972994941414E-13
      3.42118245124817E-10
      8.00000000000000E-01   8.00000000000000E-01   0.00000000000000E+00  -6.71897039102996E-14   5.71650369655531E-11
      2.07544094361989E-17   5.70978680160522E-11   1.83752180605520E-13   8.00000000000000E-01   8.00000000000000E-01
      0.00000000000000E+00  -6.72071089939397E-14   5.73519020805799E-11   2.07543740707524E-17   5.72847157259600E-11
      2.59627020031645E-13   8.00000000000000E-01   8.00000000000000E-01   0.00000000000000E+00  -3.38427358107426E-14
     -2.29636664140430E-11   2.07543354946171E-17  -2.29974883955182E-11   2.38466457574484E-13   0.00000000000000E+00
      0.00000000000000E+00   0.00000000000000E+00  -3.85352795733577E-12   2.73257901912247E-10   6.04423655633874E-07
      6.04693060007829E-07  -1.96044858426032E-13  -4.50000000000000E+01  -4.50000000000000E+01   0.00000000000000E+00
     -1.08442641587415E-07  -2.49919590359478E-14  -4.99830683147638E-07  -6.08273349727013E-07  -6.86770501403191E-13
      8.00000000000000E-01   8.00000000000000E-01   0.00000000000000E+00  -1.92784179257835E-13   3.48909738726115E-09
      2.07543106029650E-17   3.48890462383620E-09   2.00969701617576E-13
      4.03697073459625E-10
      8.00000000000000E-01   8.00000000000000E-01   0.00000000000000E+00  -6.47007165714679E-14  -5.24689496644656E-11
      2.07543179163961E-17  -5.25336296267191E-11   1.83752188356210E-13   8.00000000000000E-01   8.00000000000000E-01
      0.00000000000000E+00  -6.48208639955083E-14  -5.23026020670719E-11   2.07544769458696E-17  -5.23674021765904E-11
      2.59627028938032E-13   8.00000000000000E-01   8.00000000000000E-01   0.00000000000000E+00  -3.19216074406882E-14
     -7.76887265946663E-11   2.07543254198126E-17  -7.77206274477816E-11   2.38466456204268E-13   0.00000000000000E+00
      0.00000000000000E+00   0.00000000000000E+00  -3.90342348176324E-12   1.64920874653029E-10   5.99759211781757E-07
      5.99920229232928E-07  -1.96033720537617E-13  -4.50000000000000E+01  -4.50000000000000E+01   0.00000000000000E+00
     -1.03103749907139E-07  -2.49921163023806E-14  -4.99790600725012E-07  -6.02894375624268E-07  -6.86777014189223E-13
      8.00000000000000E-01   8.00000000000000E-01   0.00000000000000E+00  -2.03701071327613E-13   3.15697173090780E-09
      2.07543180744568E-17   3.15676805059079E-09   2.00965061228333E-13
      4.49881194710732E-10
      8.00000000000000E-01   8.00000000000000E-01   0.00000000000000E+00  -6.22816205162349E-14  -1.31455699063102E-10
      2.07542673512720E-17  -1.31517959929351E-10   1.83752187886118E-13   8.00000000000000E-01   8.00000000000000E-01
      0.00000000000000E+00  -6.23456476071792E-14  -1.31304809426225E-10   2.07541198253446E-17  -1.31367134319712E-10
      2.59627029347910E-13   8.00000000000000E-01   8.00000000000000E-01   0.00000000000000E+00  -3.00570612869877E-14
     -1.16340885207966E-10   2.07542884005766E-17  -1.16370921514964E-10   2.38466451894513E-13   0.00000000000000E+00
      0.00000000000000E+00   0.00000000000000E+00  -3.93388523844529E-12   1.13805913083549E-10   5.96211746164611E-07
      5.96321618192456E-07  -1.96025762731043E-13  -4.50000000000000E+01  -4.50000000000000E+01   0.00000000000000E+00
     -9.92284971608877E-08  -2.49922284972048E-14  -4.99610018458178E-07  -5.98838540611294E-07  -6.86781686297113E-13
      8.00000000000000E-01   8.00000000000000E-01   0.00000000000000E+00  -2.12135199448096E-13   2.89639054904729E-09
      2.07543192130294E-17   2.89617843460216E-09   2.00961779899615E-13
      5.19157376587391E-10
      8.00000000000000E-01   8.00000000000000E-01   0.00000000000000E+00  -5.79909599447714E-14  -2.43711838128524E-10
      2.07543480113249E-17  -2.43769808334120E-10   1.83752177293507E-13   8.00000000000000E-01   8.00000000000000E-01
      0.00000000000000E+00  -5.80386811676915E-14  -2.43585024732910E-10   2.07541735051403E-17  -2.43643042659904E-10
      2.59627020072881E-13   8.00000000000000E-01   8.00000000000000E-01   0.00000000000000E+00  -2.72792896939327E-14
     -1.69974039858664E-10   2.07543063837722E-17  -1.70001298394052E-10   2.38466440380641E-13   0.00000000000000E+00
      0.00000000000000E+00   0.00000000000000E+00  -3.97139565767828E-12   6.55448877809070E-11   5.90846401926244E-07
      5.90907975418367E-07  -1.96014385967601E-13  -4.50000000000000E+01  -4.50000000000000E+01   0.00000000000000E+00
     -9.35405887122800E-08  -2.49923880395389E-14  -4.99195306620967E-07  -5.92735920325635E-07  -6.86788363097667E-13
      8.00000000000000E-01   8.00000000000000E-01   0.00000000000000E+00  -2.25359767047910E-13   2.48558439566849E-09
      2.07543375808839E-17   2.48535905665578E-09   2.00957111318242E-13
      5.71114512994885E-10
      8.00000000000000E-01   8.00000000000000E-01   0.00000000000000E+00  -5.45782783516315E-14  -3.22437651846565E-10
      2.07543301049271E-17  -3.22492209370586E-10   1.83752161806598E-13   8.00000000000000E-01   8.00000000000000E-01
      0.00000000000000E+00  -5.46518368960895E-14  -3.22329688448531E-10   2.07542730949407E-17  -3.22384319531154E-10
      2.59627005553878E-13   8.00000000000000E-01   8.00000000000000E-01   0.00000000000000E+00  -2.50927175858690E-14
     -2.06525686368442E-10   2.07543311028525E-17  -2.06550758331696E-10   2.38466427972393E-13   0.00000000000000E+00
      0.00000000000000E+00   0.00000000000000E+00  -3.96412825116967E-12   4.37636323980546E-11   5.86803192228664E-07
      5.86842991732811E-07  -1.96006255514423E-13  -4.50000000000000E+01  -4.50000000000000E+01   0.00000000000000E+00
     -8.93431928082279E-08  -2.49925010438133E-14  -4.98809034870799E-07  -5.88152252671528E-07  -6.86793114054326E-13
      8.00000000000000E-01   8.00000000000000E-01   0.00000000000000E+00  -2.36023059085486E-13   2.16092422825511E-09
      2.07542986100006E-17   2.16068822595032E-09   2.00953774235879E-13
      6.49050217606127E-10
      8.00000000000000E-01   8.00000000000000E-01   0.00000000000000E+00  -4.87905974776769E-14  -4.30708676425001E-10
      2.07543109706570E-17  -4.30757446268167E-10   1.83752127141170E-13   8.00000000000000E-01   8.00000000000000E-01
      0.00000000000000E+00  -4.88115968261259E-14  -4.30629466227396E-10   2.07545324840877E-17  -4.30678257069690E-10
      2.59626972262779E-13   8.00000000000000E-01   8.00000000000000E-01   0.00000000000000E+00  -2.13889886907749E-14
     -2.55054760145600E-10   2.07543493896675E-17  -2.55076128379942E-10   2.38466403811571E-13   0.00000000000000E+00
      0.00000000000000E+00   0.00000000000000E+00  -3.96452827841196E-12   2.40257720348992E-11   5.80730433252866E-07
      5.80750494496622E-07  -1.95994644293496E-13  -4.50000000000000E+01  -4.50000000000000E+01   0.00000000000000E+00
     -8.31220648120569E-08  -2.49926602376612E-14  -4.98157783282401E-07  -5.81279873087118E-07  -6.86799834395997E-13
      8.00000000000000E-01   8.00000000000000E-01   0.00000000000000E+00  -2.52266328816546E-13   1.64614266778995E-09
      2.07542928166754E-17   1.64589042221543E-09   2.00948975473972E-13
      7.65953774522990E-10
      8.00000000000000E-01   8.00000000000000E-01   0.00000000000000E+00  -3.91239320540290E-14  -5.68643808247102E-10
      2.07543055318521E-17  -5.68682911424851E-10   1.83752051729835E-13   8.00000000000000E-01   8.00000000000000E-01
      0.00000000000000E+00  -3.91846432841937E-14  -5.68605004099247E-10   2.07541893774184E-17  -5.68644167988342E-10
      2.59626898607585E-13   8.00000000000000E-01   8.00000000000000E-01   0.00000000000000E+00  -1.57059883148633E-14
     -3.13001550393802E-10   2.07543001908305E-17  -3.13017235627817E-10   2.38466356671176E-13   0.00000000000000E+00
      0.00000000000000E+00   0.00000000000000E+00  -3.95539813101607E-12   9.92101739077735E-12   5.71636528066002E-07
      5.71642493685262E-07  -1.95978436660358E-13  -4.50000000000000E+01  -4.50000000000000E+01   0.00000000000000E+00
     -7.39190727765539E-08  -2.49928765488783E-14  -4.97086061690936E-07  -5.71005159460367E-07  -6.86809013043813E-13
      8.00000000000000E-01   8.00000000000000E-01   0.00000000000000E+00  -2.74886627454701E-13   8.13284956019336E-10
      2.07543240892455E-17   8.13010090146206E-10   2.00942142695575E-13
      8.53631442210637E-10
      8.00000000000000E-01   8.00000000000000E-01   0.00000000000000E+00  -3.11464862795992E-14  -6.51072522081461E-10
      2.07543453015222E-17  -6.51103647813396E-10   1.83751978962559E-13   8.00000000000000E-01   8.00000000000000E-01
      0.00000000000000E+00  -3.11639462529888E-14  -6.51058249641133E-10   2.07543818297732E-17  -6.51089392833004E-10
      2.59626826809391E-13   8.00000000000000E-01   8.00000000000000E-01   0.00000000000000E+00  -1.12415655188111E-14
     -3.44441746162826E-10   2.07543521704636E-17  -3.44452966973993E-10   2.38466314161706E-13   0.00000000000000E+00
      0.00000000000000E+00   0.00000000000000E+00  -3.95291987225147E-12   5.39875840549187E-12   5.64840981222143E-07
      5.64842427060676E-07  -1.95967174858881E-13  -4.50000000000000E+01  -4.50000000000000E+01   0.00000000000000E+00
     -6.71030439409431E-08  -2.49930215560927E-14  -4.96239689196498E-07  -5.63342758130463E-07  -6.86815195027607E-13
      8.00000000000000E-01   8.00000000000000E-01   0.00000000000000E+00  -2.81007872638062E-13   1.47258064526000E-10