DF-ISE text

Info {
  version   = 1.0
  type      = xyplot
  datasets  = [
    "time"
    "Ntop OuterVoltage" "Ntop InnerVoltage" "Ntop QuasiFermiPotential" "Ntop DisplacementCurrent" "Ntop eCurrent"
    "Ntop hCurrent" "Ntop TotalCurrent" "Ntop Charge" "Ptop OuterVoltage" "Ptop InnerVoltage"
    "Ptop QuasiFermiPotential" "Ptop DisplacementCurrent" "Ptop eCurrent" "Ptop hCurrent" "Ptop TotalCurrent"
    "Ptop Charge" "Pbot OuterVoltage" "Pbot InnerVoltage" "Pbot QuasiFermiPotential" "Pbot DisplacementCurrent"
    "Pbot eCurrent" "Pbot hCurrent" "Pbot TotalCurrent" "Pbot Charge" ]
  functions = [
    Time
    OuterVoltage InnerVoltage QuasiFermiPotential DisplacementCurrent eCurrent
    hCurrent TotalCurrent Charge OuterVoltage InnerVoltage
    QuasiFermiPotential DisplacementCurrent eCurrent hCurrent TotalCurrent
    Charge OuterVoltage InnerVoltage QuasiFermiPotential DisplacementCurrent
    eCurrent hCurrent TotalCurrent Charge ]
}

Data {
      5.00000000000000E-13
      8.00000000000000E-01   8.00000000000000E-01   0.00000000000000E+00   9.39245203545780E-15   7.17662270536985E-12
     -6.60134105371035E-12   5.84674103694958E-13   2.34224766837352E-13   0.00000000000000E+00   0.00000000000000E+00
      0.00000000000000E+00  -1.21712579331335E-13  -1.97157898428249E-16   1.75442995576844E-09   1.75430804603121E-09
     -6.21801123149400E-14  -4.50000000000000E+01  -4.50000000000000E+01   0.00000000000000E+00  -3.93280077231409E-13
      1.31642300838885E-11  -1.76766367014156E-09  -1.75489272013490E-09  -1.72044654522412E-13
      1.25000000000000E-12
      8.00000000000000E-01   8.00000000000000E-01   0.00000000000000E+00   1.01285963617008E-13   3.23159842340638E-11
     -3.04606224507726E-11   1.95664774690820E-12   2.34224766837716E-13   0.00000000000000E+00   0.00000000000000E+00
      0.00000000000000E+00  -3.89231877664721E-14  -1.97157898425958E-16   1.75548797076962E-09   1.75544885042395E-09
     -6.21801123143614E-14  -4.50000000000000E+01  -4.50000000000000E+01   0.00000000000000E+00  -2.24890048461618E-12
      6.07530274116004E-11  -1.81590962509785E-09  -1.75740549817086E-09  -1.72044654523355E-13
      2.37500000000000E-12
      8.00000000000000E-01   8.00000000000000E-01   0.00000000000000E+00   7.67134967607881E-13   2.69342322398535E-10
     -2.52034248676596E-10   1.80752086895465E-11   2.34224766843043E-13   0.00000000000000E+00   0.00000000000000E+00
      0.00000000000000E+00   1.02136736600473E-12  -1.97157898400081E-16   1.76821772683413E-09   1.76923889704223E-09
     -6.21801123056875E-14  -4.50000000000000E+01  -4.50000000000000E+01   0.00000000000000E+00  -2.43803851243028E-11
      5.02560478211076E-10  -2.26549419881855E-09  -1.78731410573178E-09  -1.72044654537355E-13
      4.06250000000000E-12
      8.00000000000000E-01   8.00000000000000E-01   0.00000000000000E+00   1.15003824619024E-11   4.18359142677331E-09
     -3.82341800168811E-09   3.71673807547104E-10   2.34224766999474E-13   0.00000000000000E+00   0.00000000000000E+00
      0.00000000000000E+00   1.47135095526221E-11  -1.97157897805458E-16   2.06302704135512E-09   2.07774035374984E-09
     -6.21801120431679E-14  -4.50000000000000E+01  -4.50000000000000E+01   0.00000000000000E+00  -5.14363614160216E-10
      7.61998805521167E-09  -9.55503860234841E-09  -2.44941416129695E-09  -1.72044654956305E-13
      6.59375000000000E-12
      8.00000000000000E-01   8.00000000000000E-01   0.00000000000000E+00   2.29064870767438E-10   8.71164456025428E-08
     -7.65157803539053E-08   1.08297301194049E-08   2.34224773665298E-13   0.00000000000000E+00   0.00000000000000E+00
      0.00000000000000E+00   2.96816734759118E-10  -1.97157879652035E-16   1.10568098984949E-08   1.13536264360962E-08
     -6.21801005528465E-14  -4.50000000000000E+01  -4.50000000000000E+01   0.00000000000000E+00  -1.51178501829701E-08
      1.52359739452510E-07  -1.59425245825041E-07  -2.21833565555010E-08  -1.72044673112452E-13
      1.03906250000000E-11
      8.00000000000000E-01   8.00000000000000E-01   0.00000000000000E+00   1.91415943417305E-09   7.81084108349882E-07
     -6.36858672285562E-07   1.46139595498493E-07   2.34224914994703E-13   0.00000000000000E+00   0.00000000000000E+00
      0.00000000000000E+00   2.45810602405251E-09  -1.97157640324796E-16   1.29435440165811E-07   1.31893545992706E-07
     -6.21798534629916E-14  -4.50000000000000E+01  -4.50000000000000E+01   0.00000000000000E+00  -2.04289703901289E-07
      1.26595473585676E-06  -1.33969817344666E-06  -2.78033141491198E-07  -1.72045061531711E-13
      1.60859375000000E-11
      8.00000000000000E-01   8.00000000000000E-01   0.00000000000000E+00   1.11733381507072E-09   6.98626539779598E-07
     -3.40796887391349E-07   3.58946986203320E-07   2.34225657048289E-13   0.00000000000000E+00   0.00000000000000E+00
      0.00000000000000E+00   1.15382230214509E-09  -1.97157277622759E-16   3.07747895956810E-07   3.08901718061798E-07
     -6.21785832008393E-14  -4.50000000000000E+01  -4.50000000000000E+01   0.00000000000000E+00  -4.90171164826106E-07
      6.67071121951566E-07  -8.44748661390576E-07  -6.67848704265115E-07  -1.72047073847450E-13
      2.46289062500000E-11
      8.00000000000000E-01   8.00000000000000E-01   0.00000000000000E+00   1.48753382676539E-10   4.77995789302786E-07
     -8.51253053392778E-09   4.69632012151534E-07   2.34227509997066E-13   0.00000000000000E+00   0.00000000000000E+00
      0.00000000000000E+00  -1.82791017890880E-10  -1.97157171959314E-16   3.57744511971014E-07   3.57561720755966E-07
     -6.21756959664634E-14  -4.50000000000000E+01  -4.50000000000000E+01   0.00000000000000E+00  -5.99314568591457E-07
      1.23607022103477E-09  -2.29115234537076E-07  -8.27193732907498E-07  -1.72051814030602E-13
      3.74433593750000E-11
      8.00000000000000E-01   8.00000000000000E-01   0.00000000000000E+00   1.08221897625131E-10   5.15090239063372E-07
     -7.17639565819756E-09   5.08022065302799E-07   2.34230794003681E-13   0.00000000000000E+00   0.00000000000000E+00
      0.00000000000000E+00  -1.37998129007676E-10  -1.97157242901025E-16   3.19615116165005E-07   3.19477117838840E-07
     -6.21713898090906E-14  -4.50000000000000E+01  -4.50000000000000E+01   0.00000000000000E+00  -5.85233077166606E-07
     -6.25619297724868E-15  -2.42266099718841E-07  -8.27499183141640E-07  -1.72059404194591E-13
      5.66650390625000E-11
      8.00000000000000E-01   8.00000000000000E-01   0.00000000000000E+00   7.39880220970209E-11   5.54150475339644E-07
     -6.21437689699337E-09   5.48010086464748E-07   2.34236169704043E-13   0.00000000000000E+00   0.00000000000000E+00
      0.00000000000000E+00  -9.94479847874651E-11  -1.97157321895331E-16   2.76588015697388E-07   2.76488567515443E-07
     -6.21657171285629E-14  -4.50000000000000E+01  -4.50000000000000E+01   0.00000000000000E+00  -5.64522901506818E-07
     -6.25653395287960E-15  -2.59975746216841E-07  -8.24498653980193E-07  -1.72070452575480E-13
      8.54975585937500E-11
      8.00000000000000E-01   8.00000000000000E-01   0.00000000000000E+00   4.42900048977017E-11   5.90765795670193E-07
     -5.00621707466100E-09   5.85803868600430E-07   2.34244814172695E-13   0.00000000000000E+00   0.00000000000000E+00
      0.00000000000000E+00  -6.54905440580323E-11  -1.97157401940980E-16   2.31949123958154E-07   2.31883633216938E-07
     -6.21584815093940E-14  -4.50000000000000E+01  -4.50000000000000E+01   0.00000000000000E+00  -5.37412059883419E-07
     -6.25689377202601E-15  -2.80275435677057E-07  -8.17687501817369E-07  -1.72086332663302E-13
      1.28746337890625E-10
      8.00000000000000E-01   8.00000000000000E-01   0.00000000000000E+00   2.04549967119396E-11   6.18904320922749E-07
     -3.61809122954077E-09   6.15306684689921E-07   2.34258359433440E-13   0.00000000000000E+00   0.00000000000000E+00
      0.00000000000000E+00  -3.80184139023679E-11  -1.97157473171137E-16   1.90097202427365E-07   1.90059183816305E-07
     -6.21495103052115E-14  -4.50000000000000E+01  -4.50000000000000E+01   0.00000000000000E+00  -5.04534512287786E-07
     -6.25740479070372E-15  -3.00831349961031E-07  -8.05365868506222E-07  -1.72108849128228E-13
      1.61182922363281E-10
      8.00000000000000E-01   8.00000000000000E-01   0.00000000000000E+00   1.06589948746073E-11   6.28010048382014E-07
     -2.83911313981329E-09   6.25181594237075E-07   2.34268650768020E-13   0.00000000000000E+00   0.00000000000000E+00
      0.00000000000000E+00  -2.68889801002754E-11  -1.97157503399244E-16   1.70236697220807E-07   1.70209808043549E-07
     -6.21437636553120E-14  -4.50000000000000E+01  -4.50000000000000E+01   0.00000000000000E+00  -4.84623849694024E-07
     -6.25776921122096E-15  -3.10767546328829E-07  -7.95391402280623E-07  -1.72124887112709E-13
      2.09837799072266E-10
      8.00000000000000E-01   8.00000000000000E-01   0.00000000000000E+00   2.39602384519789E-12   6.32045633224327E-07
     -1.97437305568890E-09   6.30073656192484E-07   2.34283977797425E-13   0.00000000000000E+00   0.00000000000000E+00
      0.00000000000000E+00  -1.78205631895986E-11  -1.97157528373767E-16   1.49800688832515E-07   1.49782868072168E-07
     -6.21361257029429E-14  -4.50000000000000E+01  -4.50000000000000E+01   0.00000000000000E+00  -4.59784301444042E-07
     -6.25829137711231E-15  -3.20072216562317E-07  -7.79856524264650E-07  -1.72147852094483E-13
      2.46328956604004E-10
      8.00000000000000E-01   8.00000000000000E-01   0.00000000000000E+00  -7.60008005695058E-13   6.30849440486996E-07
     -1.50712832857150E-09   6.29341552150419E-07   2.34295301555544E-13   0.00000000000000E+00   0.00000000000000E+00
      0.00000000000000E+00  -1.45643305910988E-11  -1.97157537319041E-16   1.38596998008196E-07   1.38582433480448E-07
     -6.21309639516172E-14  -4.50000000000000E+01  -4.50000000000000E+01   0.00000000000000E+00  -4.43901335783605E-07
     -6.25866638580026E-15  -3.24022643588593E-07  -7.67923985630864E-07  -1.72164337603927E-13
      3.01065692901611E-10
      8.00000000000000E-01   8.00000000000000E-01   0.00000000000000E+00  -3.00945677634573E-12   6.26227099209542E-07
     -1.00714164836330E-09   6.25216948104403E-07   2.34311958766521E-13   0.00000000000000E+00   0.00000000000000E+00
      0.00000000000000E+00  -1.24676713462171E-11  -1.97157543131234E-16   1.24584144572500E-07   1.24571676703996E-07
     -6.21239076059315E-14  -4.50000000000000E+01  -4.50000000000000E+01   0.00000000000000E+00  -4.22773063405542E-07
     -6.25920594871278E-15  -3.27015555143648E-07  -7.49788624808396E-07  -1.72188051160588E-13
      3.42118245124817E-10
      8.00000000000000E-01   8.00000000000000E-01   0.00000000000000E+00  -3.56070261953007E-12   6.21895438539418E-07
     -7.47799578654471E-10   6.21144078258144E-07   2.34324203941574E-13   0.00000000000000E+00   0.00000000000000E+00
      0.00000000000000E+00  -1.21302340416849E-11  -1.97157544757392E-16   1.14961443812618E-07   1.14949313381419E-07
     -6.21190945669345E-14  -4.50000000000000E+01  -4.50000000000000E+01   0.00000000000000E+00  -4.08345893006380E-07
     -6.25959413733929E-15  -3.27747492373589E-07  -7.36093391639562E-07  -1.72205109374639E-13
      4.03697073459625E-10
      8.00000000000000E-01   8.00000000000000E-01   0.00000000000000E+00  -3.54148012310776E-12   6.15506997281049E-07
     -4.80922544738982E-10   6.15022533256187E-07   2.34342236279503E-13   0.00000000000000E+00   0.00000000000000E+00
      0.00000000000000E+00  -1.24952387785354E-11  -1.97157547169850E-16   1.00508891311365E-07   1.00496395875429E-07
     -6.21126096510802E-14  -4.50000000000000E+01  -4.50000000000000E+01   0.00000000000000E+00  -3.88048493059241E-07
     -6.26015209691758E-15  -3.27470429812225E-07  -7.15518929131618E-07  -1.72229626628424E-13
      4.49881194710732E-10
      8.00000000000000E-01   8.00000000000000E-01   0.00000000000000E+00  -3.18545803500351E-12   6.11247801749180E-07
     -3.48393980568197E-10   6.10896222310577E-07   2.34355548289146E-13   0.00000000000000E+00   0.00000000000000E+00
      0.00000000000000E+00  -1.30961994468542E-11  -1.97157550712607E-16   8.92251546327780E-08   8.92120582361736E-08
     -6.21083363556276E-14  -4.50000000000000E+01  -4.50000000000000E+01   0.00000000000000E+00  -3.73518614906207E-07
     -6.26055230091359E-15  -3.26589659379989E-07  -7.00108280546749E-07  -1.72247211933517E-13
      5.19157376587391E-10
      8.00000000000000E-01   8.00000000000000E-01   0.00000000000000E+00  -2.47078231943230E-12   6.06086247360089E-07
     -2.17422255007020E-10   6.05866354322762E-07   2.34375285500570E-13   0.00000000000000E+00   0.00000000000000E+00
      0.00000000000000E+00  -1.41292274373460E-11  -1.97157561077984E-16   7.12229473317583E-08   7.12088179071634E-08
     -6.21029318387118E-14  -4.50000000000000E+01  -4.50000000000000E+01   0.00000000000000E+00  -3.52373381484593E-07
     -6.26112444644396E-15  -3.24701784484209E-07  -6.77075172229927E-07  -1.72272353661857E-13
      5.71114512994885E-10
      8.00000000000000E-01   8.00000000000000E-01   0.00000000000000E+00  -1.90556484340427E-12   6.03216437225747E-07
     -1.55213360792888E-10   6.03059318300111E-07   2.34389974043639E-13   0.00000000000000E+00   0.00000000000000E+00
      0.00000000000000E+00  -1.48813942354222E-11  -1.97157573665986E-16   5.68372473370252E-08   5.68223657456322E-08
     -6.20997156928264E-14  -4.50000000000000E+01  -4.50000000000000E+01   0.00000000000000E+00  -3.36855195594393E-07
     -6.26153187173615E-15  -3.23026482189818E-07  -6.59881684045743E-07  -1.72290258350813E-13
      6.49050217606127E-10
      8.00000000000000E-01   8.00000000000000E-01   0.00000000000000E+00  -1.12823577781064E-12   6.00395302933803E-07
     -9.60820857005690E-11   6.00298092612325E-07   2.34411948055887E-13   0.00000000000000E+00   0.00000000000000E+00
      0.00000000000000E+00  -1.58783085040434E-11  -1.97157601169219E-16   3.39531792465607E-08   3.39373007408991E-08
     -6.20963315844113E-14  -4.50000000000000E+01  -4.50000000000000E+01   0.00000000000000E+00  -3.13917848778327E-07
     -6.26210884909585E-15  -3.20317538312790E-07  -6.34235393353226E-07  -1.72315616471475E-13
      7.07501996064559E-10
      8.00000000000000E-01   8.00000000000000E-01   0.00000000000000E+00  -6.30566756270642E-13   5.99302082873979E-07
     -6.91142245373528E-11   5.99232338082686E-07   2.34428451535849E-13   0.00000000000000E+00   0.00000000000000E+00
      0.00000000000000E+00  -1.64915404826224E-11  -1.97157628685579E-16   1.58997870521411E-08   1.58832953145009E-08
     -6.20949834105779E-14  -4.50000000000000E+01  -4.50000000000000E+01   0.00000000000000E+00  -2.96910252910821E-07
     -6.26251499010283E-15  -3.18205374223852E-07  -6.15115633397188E-07  -1.72333468125270E-13
      7.95179663752206E-10
      8.00000000000000E-01   8.00000000000000E-01   0.00000000000000E+00  -4.48940442118298E-14   5.98955414049408E-07
     -4.42486910052102E-11   5.98911120464358E-07   2.34453362152646E-13   0.00000000000000E+00   0.00000000000000E+00
      0.00000000000000E+00  -1.71885826102873E-11  -1.97157680005595E-16  -1.22780329774373E-08  -1.22952217572052E-08
     -6.20949709365744E-14  -4.50000000000000E+01  -4.50000000000000E+01   0.00000000000000E+00  -2.71626795806560E-07
     -6.26308195249123E-15  -3.14989096637511E-07  -5.86615898707153E-07  -1.72358391216070E-13
      9.26696165283676E-10
      8.00000000000000E-01   8.00000000000000E-01   0.00000000000000E+00   4.53589645838744E-13   6.00383826309039E-07
     -2.55682608360267E-11   6.00358711637849E-07   2.34491292624328E-13   0.00000000000000E+00   0.00000000000000E+00
      0.00000000000000E+00  -1.77113796196574E-11  -1.97157767461706E-16  -5.60904163020886E-08  -5.61081278788660E-08
     -6.20996474638654E-14  -4.50000000000000E+01  -4.50000000000000E+01   0.00000000000000E+00  -2.34110977587086E-07
     -6.26383831839860E-15  -3.10139599908060E-07  -5.44250583758984E-07  -1.72391645160463E-13
      1.02533354143228E-09
      8.00000000000000E-01   8.00000000000000E-01   0.00000000000000E+00   4.96728439084148E-13   6.02152154632786E-07
     -1.88125753515679E-11   6.02133838785873E-07   2.34520290797253E-13   0.00000000000000E+00   0.00000000000000E+00
      0.00000000000000E+00  -1.76531562575738E-11  -1.97157815895142E-16  -8.93512561731880E-08  -8.93689095266034E-08
     -6.21069283960232E-14  -4.50000000000000E+01  -4.50000000000000E+01   0.00000000000000E+00  -2.06253215078058E-07
     -6.26433221366214E-15  -3.06511707916881E-07  -5.12764929259271E-07  -1.72413362401230E-13
      1.17328960565518E-09
      8.00000000000000E-01   8.00000000000000E-01   0.00000000000000E+00  -1.55832007420685E-13   6.03761151559914E-07
     -1.33100729020433E-11   6.03747685655004E-07   2.34564668532357E-13   0.00000000000000E+00   0.00000000000000E+00
      0.00000000000000E+00  -1.65944483015616E-11  -1.97157710932969E-16  -1.37740988768037E-07  -1.37757583413496E-07
     -6.21238532283142E-14  -4.50000000000000E+01  -4.50000000000000E+01   0.00000000000000E+00  -1.64885944126889E-07
     -6.26495648130090E-15  -3.01104151849661E-07  -4.65990102241507E-07  -1.72440815304043E-13
      1.28425665382236E-09
      8.00000000000000E-01   8.00000000000000E-01   0.00000000000000E+00  -1.40277327520679E-12   6.02198245358715E-07
     -1.09878267640659E-11   6.02185854758676E-07   2.34598437798015E-13   0.00000000000000E+00   0.00000000000000E+00
      0.00000000000000E+00  -1.47423831398287E-11  -1.97157258342816E-16  -1.70879328647932E-07  -1.70894071228229E-07
     -6.21410289516465E-14  -4.50000000000000E+01  -4.50000000000000E+01   0.00000000000000E+00  -1.34214270160939E-07
     -6.26533378220959E-15  -2.97077507104174E-07  -4.31291783530447E-07  -1.72457408846368E-13
      1.36748193994775E-09
      8.00000000000000E-01   8.00000000000000E-01   0.00000000000000E+00  -2.90951221829980E-12   5.98038004699312E-07
     -9.73534077529654E-12   5.98025359846319E-07   2.34623793631950E-13   0.00000000000000E+00   0.00000000000000E+00
      0.00000000000000E+00  -1.25730496772902E-11  -1.97156464432429E-16  -1.92489074020665E-07  -1.92501647267499E-07
     -6.21561629197372E-14  -4.50000000000000E+01  -4.50000000000000E+01   0.00000000000000E+00  -1.11449302334667E-07
     -6.26556620003655E-15  -2.94074403978587E-07  -4.05523712578820E-07  -1.72467630712213E-13
      1.49231986913582E-09
      8.00000000000000E-01   8.00000000000000E-01   0.00000000000000E+00  -6.13044180627659E-12   5.84287591461153E-07
     -8.30392499064873E-12   5.84273157094356E-07   2.34661182983669E-13   0.00000000000000E+00   0.00000000000000E+00
      0.00000000000000E+00  -7.90993830729995E-12  -1.97153833431358E-16  -2.16828524620346E-07  -2.16836434755807E-07
     -6.21817412655466E-14  -4.50000000000000E+01  -4.50000000000000E+01   0.00000000000000E+00  -7.78392526685919E-08
     -6.26583475860198E-15  -2.89597463404124E-07  -3.67436722338550E-07  -1.72479441718122E-13
      1.58594831602688E-09
      8.00000000000000E-01   8.00000000000000E-01   0.00000000000000E+00  -9.22531734109293E-12   5.66296142349810E-07
     -7.46433424009468E-12   5.66279452698229E-07   2.34688071483613E-13   0.00000000000000E+00   0.00000000000000E+00
      0.00000000000000E+00  -3.37920741035950E-12  -1.97150003239010E-16  -2.26781335327246E-07  -2.26784714731807E-07
     -6.22024963697376E-14  -4.50000000000000E+01  -4.50000000000000E+01   0.00000000000000E+00  -5.32326119391271E-08
     -6.26597423769626E-15  -2.86262119761320E-07  -3.39494737966422E-07  -1.72485575113876E-13
      1.72639098636346E-09
      8.00000000000000E-01   8.00000000000000E-01   0.00000000000000E+00  -1.43658786870560E-11   5.24401210600043E-07
     -6.44024339058856E-12   5.24380404477966E-07   2.34724829146455E-13   0.00000000000000E+00   0.00000000000000E+00
      0.00000000000000E+00   4.37882489924946E-12  -1.97139076998764E-16  -2.25222354372730E-07  -2.25217975744970E-07
     -6.22342751926938E-14  -4.50000000000000E+01  -4.50000000000000E+01   0.00000000000000E+00  -1.78650519937427E-08
     -6.26608751422128E-15  -2.81297370473166E-07  -2.99162428732996E-07  -1.72490553953760E-13
      1.83172298911590E-09
      8.00000000000000E-01   8.00000000000000E-01   0.00000000000000E+00  -1.79949159683664E-11   4.81058576527838E-07
     -5.80670026267844E-12   4.81034774911607E-07   2.34748319587451E-13   0.00000000000000E+00   0.00000000000000E+00
      0.00000000000000E+00   1.01638428659041E-11  -1.97124901266549E-16  -2.10384272118507E-07  -2.10374108472766E-07
     -6.22571986804037E-14  -4.50000000000000E+01  -4.50000000000000E+01   0.00000000000000E+00   6.94532298096176E-09
     -6.26610049221042E-15  -2.77605983153704E-07  -2.70660666438843E-07  -1.72491120907048E-13
      1.98972099324456E-09
      8.00000000000000E-01   8.00000000000000E-01   0.00000000000000E+00  -2.17008333850963E-11   4.00835796789831E-07
     -5.00861948069384E-12   4.00809087336965E-07   2.34774563752444E-13   0.00000000000000E+00   0.00000000000000E+00
      0.00000000000000E+00   1.69302512774404E-11  -1.97089460440075E-16  -1.68967938319066E-07  -1.68951008264878E-07
     -6.22872086277646E-14  -4.50000000000000E+01  -4.50000000000000E+01   0.00000000000000E+00   4.02687975806869E-08
     -6.26601505052655E-15  -2.72126870386758E-07  -2.31858079072086E-07  -1.72487355124681E-13
      2.10821949634105E-09
      8.00000000000000E-01   8.00000000000000E-01   0.00000000000000E+00  -2.25035654862347E-11   3.33935227201555E-07
     -4.50443090981306E-12   3.33908219205159E-07   2.34786058259399E-13   0.00000000000000E+00   0.00000000000000E+00
      0.00000000000000E+00   1.95890383186329E-11  -1.97048883409107E-16  -1.27427709551802E-07  -1.27408120710532E-07
     -6.23047544701854E-14  -4.50000000000000E+01  -4.50000000000000E+01   0.00000000000000E+00   6.15682286080211E-08
     -6.26587762948133E-15  -2.68068320836770E-07  -2.06500098494627E-07  -1.72481303789213E-13
      2.28596725098579E-09
      8.00000000000000E-01   8.00000000000000E-01   0.00000000000000E+00  -2.04431114577950E-11   2.36091079140367E-07
     -3.86320212820710E-12   2.36066772826781E-07   2.34789513353324E-13   0.00000000000000E+00   0.00000000000000E+00
      0.00000000000000E+00   1.92623924366624E-11  -1.96962053891110E-16  -6.09607923386594E-08  -6.09415301431848E-08
     -6.23214689274263E-14  -4.50000000000000E+01  -4.50000000000000E+01   0.00000000000000E+00   8.69496457539649E-08
     -6.26557643450783E-15  -2.62074882171985E-07  -1.75125242683596E-07  -1.72468044425899E-13
      2.41927806696935E-09
      8.00000000000000E-01   8.00000000000000E-01   0.00000000000000E+00  -1.70487071883502E-11   1.72284416381439E-07
     -3.45571162009486E-12   1.72263911962631E-07   2.34782064473205E-13   0.00000000000000E+00   0.00000000000000E+00
      0.00000000000000E+00   1.63691399395893E-11  -1.96877124379829E-16  -1.56158846766357E-08  -1.55995157335733E-08
     -6.23265703937587E-14  -4.50000000000000E+01  -4.50000000000000E+01   0.00000000000000E+00   1.00997544842732E-07
     -6.26529129779944E-15  -2.57661934806498E-07  -1.56664396229057E-07  -1.72455494079448E-13
      2.61924429094468E-09
      8.00000000000000E-01   8.00000000000000E-01   0.00000000000000E+00  -1.11608777769717E-11   1.00400612680573E-07
     -2.93491341326092E-12   1.00386516889383E-07   2.34758330230885E-13   0.00000000000000E+00   0.00000000000000E+00
      0.00000000000000E+00   1.03831362543173E-11  -1.96726559749022E-16   3.52597083166881E-08   3.52700912562159E-08
     -6.23245418093530E-14  -4.50000000000000E+01  -4.50000000000000E+01   0.00000000000000E+00   1.15523833158871E-07
     -6.26479809220959E-15  -2.51180435039672E-07  -1.35656608145599E-07  -1.72433788421532E-13
      2.76921895892618E-09
      8.00000000000000E-01   8.00000000000000E-01   0.00000000000000E+00  -7.27062880387692E-12   6.51965212905382E-08
     -2.60194692583323E-12   6.51866487148085E-08   2.34733485896994E-13   0.00000000000000E+00   0.00000000000000E+00
      0.00000000000000E+00   6.12195449820875E-12  -1.96604888702751E-16   5.86183182182828E-08   5.86244399761761E-08
     -6.23175697159838E-14  -4.50000000000000E+01  -4.50000000000000E+01   0.00000000000000E+00   1.22603066966258E-07
     -6.26439194237020E-15  -2.46414149392850E-07  -1.23811088690985E-07  -1.72415916181011E-13
      2.88169995991231E-09
      8.00000000000000E-01   8.00000000000000E-01   0.00000000000000E+00  -5.04592024580330E-12   4.74917788872904E-08
     -2.37858715243345E-12   4.74843543798921E-08   2.34712402458703E-13   0.00000000000000E+00   0.00000000000000E+00
      0.00000000000000E+00   3.57071383179273E-12  -1.96514658338291E-16   6.88776617203394E-08   6.88812322376565E-08
     -6.23105006951060E-14  -4.50000000000000E+01  -4.50000000000000E+01   0.00000000000000E+00   1.26505163235764E-07
     -6.26407343573765E-15  -2.42870743589239E-07  -1.16365586617549E-07  -1.72401901763597E-13
      2.96606071065190E-09
      8.00000000000000E-01   8.00000000000000E-01   0.00000000000000E+00  -3.75888867572860E-12   3.79725165906779E-08
     -2.22398747862467E-12   3.79665337145235E-08   2.34695723982929E-13   0.00000000000000E+00   0.00000000000000E+00
      0.00000000000000E+00   2.08147665785492E-12  -1.96449804178397E-16   7.33559414705483E-08   7.33580227507564E-08
     -6.23045961865437E-14  -4.50000000000000E+01  -4.50000000000000E+01   0.00000000000000E+00   1.28888479048263E-07
     -6.26382856051700E-15  -2.40213029249715E-07  -1.11324556465280E-07  -1.72391127796386E-13
      2.99769599217925E-09
      8.00000000000000E-01   8.00000000000000E-01   0.00000000000000E+00  -3.35654378135551E-12   3.50741996092091E-08
     -2.16864742319384E-12   3.50686744180045E-08   2.34689335730533E-13   0.00000000000000E+00   0.00000000000000E+00
      0.00000000000000E+00   1.61036182653131E-12  -1.96426362279353E-16   7.44539845491962E-08   7.44555947145964E-08
     -6.23022980740662E-14  -4.50000000000000E+01  -4.50000000000000E+01   0.00000000000000E+00   1.29688586607102E-07
     -6.26373559496917E-15  -2.39212849475967E-07  -1.09524269132601E-07  -1.72387037656467E-13
      3.02142245332476E-09
      8.00000000000000E-01   8.00000000000000E-01   0.00000000000000E+00  -3.08231086873574E-12   3.31050132382448E-08
     -2.12803889349566E-12   3.30998028884826E-08   2.34684508217578E-13   0.00000000000000E+00   0.00000000000000E+00
      0.00000000000000E+00   1.29501013507253E-12  -1.96409144784482E-16   7.50992522016567E-08   7.51005470153826E-08
     -6.23005544157359E-14  -4.50000000000000E+01  -4.50000000000000E+01   0.00000000000000E+00   1.30260072698532E-07
     -6.26366550036135E-15  -2.38460416338731E-07  -1.08200349903865E-07  -1.72383953801842E-13
      3.05701214504302E-09
      8.00000000000000E-01   8.00000000000000E-01   0.00000000000000E+00  -2.70938379617867E-12   3.04469204931636E-08
     -2.06852405833110E-12   3.04421425853091E-08   2.34677218599005E-13   0.00000000000000E+00   0.00000000000000E+00
      0.00000000000000E+00   8.49974906686487E-13  -1.96383942573471E-16   7.58086892981322E-08   7.58095390766550E-08
     -6.22979152917424E-14  -4.50000000000000E+01  -4.50000000000000E+01   0.00000000000000E+00   1.31075178883523E-07
     -6.26355979498556E-15  -2.37326854281927E-07  -1.06251681661964E-07  -1.72379303307263E-13
      3.11039668262042E-09
      8.00000000000000E-01   8.00000000000000E-01   0.00000000000000E+00  -2.22889368498156E-12   2.70440301847885E-08
     -1.98229033825709E-12   2.70398190007653E-08   2.34666199126602E-13   0.00000000000000E+00   0.00000000000000E+00
      0.00000000000000E+00   2.79772555248884E-13  -1.96347626417295E-16   7.63605920226285E-08   7.63608715988361E-08
     -6.22939237555726E-14  -4.50000000000000E+01  -4.50000000000000E+01   0.00000000000000E+00   1.32211173351995E-07
     -6.26340004664474E-15  -2.35611857688197E-07  -1.03400690599602E-07  -1.72372275371030E-13
      3.19047348898652E-09
      8.00000000000000E-01   8.00000000000000E-01   0.00000000000000E+00  -1.66620463035859E-12   2.30139108066529E-08
     -1.85944577256579E-12   2.30103851562500E-08   2.34649546868697E-13   0.00000000000000E+00   0.00000000000000E+00
      0.00000000000000E+00  -3.86630199359550E-13  -1.96296690748583E-16   7.62437438884104E-08   7.62433570619143E-08
     -6.22879204126790E-14  -4.50000000000000E+01  -4.50000000000000E+01   0.00000000000000E+00   1.33739107408877E-07
     -6.26315798313908E-15  -2.32992843363883E-07  -9.92537422181642E-08  -1.72361626456018E-13
      3.31058869853567E-09
      8.00000000000000E-01   8.00000000000000E-01   0.00000000000000E+00  -1.09272230165055E-12   1.87325898501308E-08
     -1.68882594122807E-12   1.87298083018879E-08   2.34624473505422E-13   0.00000000000000E+00   0.00000000000000E+00
      0.00000000000000E+00  -1.07245856253937E-12  -1.96228509017244E-16   7.45162058941032E-08   7.45151332393121E-08
     -6.22790289158602E-14  -4.50000000000000E+01  -4.50000000000000E+01   0.00000000000000E+00   1.35662428725149E-07
     -6.26279012996318E-15  -2.28907364003559E-07  -9.32449415412000E-08  -1.72345444589563E-13
      3.49076151285939E-09
      8.00000000000000E-01   8.00000000000000E-01   0.00000000000000E+00  -6.25809698068024E-13   1.47384825596362E-08
     -1.46072236219047E-12   1.47363960275759E-08   2.34587090300121E-13   0.00000000000000E+00   0.00000000000000E+00
      0.00000000000000E+00  -1.61569171988054E-12  -1.96144146021405E-16   6.98150604356334E-08   6.98134445477694E-08
     -6.22662783711701E-14  -4.50000000000000E+01  -4.50000000000000E+01   0.00000000000000E+00   1.37673855675235E-07
     -6.26223013076283E-15  -2.22223689988350E-07  -8.45498405753453E-08  -1.72320811928949E-13
      3.62589112360218E-09
      8.00000000000000E-01   8.00000000000000E-01   0.00000000000000E+00  -4.55674586234389E-13   1.28208160339244E-08
     -1.30944723885840E-12   1.28190509120993E-08   2.34559501085926E-13   0.00000000000000E+00   0.00000000000000E+00