DF-ISE text

Info {
  version   = 1.0
  type      = xyplot
  datasets  = [
    "time"
    "Ntop OuterVoltage" "Ntop InnerVoltage" "Ntop QuasiFermiPotential" "Ntop DisplacementCurrent" "Ntop eCurrent"
    "Ntop hCurrent" "Ntop TotalCurrent" "Ntop Charge" "Ptop OuterVoltage" "Ptop InnerVoltage"
    "Ptop QuasiFermiPotential" "Ptop DisplacementCurrent" "Ptop eCurrent" "Ptop hCurrent" "Ptop TotalCurrent"
    "Ptop Charge" "Pbot OuterVoltage" "Pbot InnerVoltage" "Pbot QuasiFermiPotential" "Pbot DisplacementCurrent"
    "Pbot eCurrent" "Pbot hCurrent" "Pbot TotalCurrent" "Pbot Charge" ]
  functions = [
    Time
    OuterVoltage InnerVoltage QuasiFermiPotential DisplacementCurrent eCurrent
    hCurrent TotalCurrent Charge OuterVoltage InnerVoltage
    QuasiFermiPotential DisplacementCurrent eCurrent hCurrent TotalCurrent
    Charge OuterVoltage InnerVoltage QuasiFermiPotential DisplacementCurrent
    eCurrent hCurrent TotalCurrent Charge ]
}

Data {
      5.00000000000000E-13
      8.00000000000000E-01   8.00000000000000E-01   0.00000000000000E+00   1.18785017203789E-14   7.14635508500216E-12
     -6.60134105986182E-12   5.56892526860722E-13   2.32745367027463E-13   0.00000000000000E+00   0.00000000000000E+00
      0.00000000000000E+00  -1.04083325209656E-13  -1.97181352815160E-16   1.99501166868118E-11   1.98458361802493E-11
     -7.40436337748779E-14  -4.00000000000000E+01  -4.00000000000000E+01   0.00000000000000E+00  -3.59063447292291E-13
      1.31645439285001E-11  -3.32082091883178E-11  -2.04027287071100E-11  -1.58701733252586E-13
      1.25000000000000E-12
      8.00000000000000E-01   8.00000000000000E-01   0.00000000000000E+00   8.86949202953127E-14   3.21168734929832E-11
     -3.04606224591072E-11   1.74494595417128E-12   2.32745367027759E-13   0.00000000000000E+00   0.00000000000000E+00
      0.00000000000000E+00  -4.64083505924449E-14  -1.97181352813016E-16   2.10165381195189E-11   2.09699325875737E-11
     -7.40436337743121E-14  -4.00000000000000E+01  -4.00000000000000E+01   0.00000000000000E+00  -2.05368992043452E-12
      6.07533412562120E-11  -8.14145298775223E-11  -2.27148785417449E-11  -1.58701733253448E-13
      2.37500000000000E-12
      8.00000000000000E-01   8.00000000000000E-01   0.00000000000000E+00   6.55596972264068E-13   2.67125415960911E-10
     -2.52034248716973E-10   1.57467642162021E-11   2.32745367032047E-13   0.00000000000000E+00   0.00000000000000E+00
      0.00000000000000E+00   1.00246291531610E-12  -1.97181352787917E-16   3.34857368581353E-11   3.44880025920986E-11
     -7.40436337658135E-14  -4.00000000000000E+01  -4.00000000000000E+01   0.00000000000000E+00  -2.22658456671646E-11
      5.02560792055688E-10  -5.30529713196824E-10  -5.02347668083009E-11  -1.58701733266234E-13
      4.06250000000000E-12
      8.00000000000000E-01   8.00000000000000E-01   0.00000000000000E+00   9.83369400895862E-12   4.13598835244129E-09
     -3.82341800272044E-09   3.22404043729811E-10   2.32745367157358E-13   0.00000000000000E+00   0.00000000000000E+00
      0.00000000000000E+00   1.44566733361589E-11  -1.97181352205215E-16   3.22669771157064E-10   3.37126247311871E-10
     -7.40436335084531E-14  -4.00000000000000E+01  -4.00000000000000E+01   0.00000000000000E+00  -4.69846017886384E-10
      7.61998836905628E-09  -7.80967264221158E-09  -6.59530291041683E-10  -1.58701733648904E-13
      6.59375000000000E-12
      8.00000000000000E-01   8.00000000000000E-01   0.00000000000000E+00   1.94967944249725E-10   8.56813072247384E-08
     -7.65157804466464E-08   9.36049472234179E-09   2.32745372452261E-13   0.00000000000000E+00   0.00000000000000E+00
      0.00000000000000E+00   2.92472287048726E-10  -1.97181334362866E-16   9.16592534490398E-09   9.45839743477137E-09
     -7.40436222194002E-14  -4.00000000000000E+01  -4.00000000000000E+01   0.00000000000000E+00  -1.38094823937758E-08
      1.52359739766355E-07  -1.57369149529692E-07  -1.88188921571131E-08  -1.58701750232861E-13
      1.03906250000000E-11
      8.00000000000000E-01   8.00000000000000E-01   0.00000000000000E+00   1.62518188183716E-09   7.61215586489813E-07
     -6.36858683670620E-07   1.25982084701030E-07   2.32745483944135E-13   0.00000000000000E+00   0.00000000000000E+00
      0.00000000000000E+00   2.42896325403950E-09  -1.97181098515191E-16   1.25865298871839E-07   1.28294261928698E-07
     -7.40433788649581E-14  -4.00000000000000E+01  -4.00000000000000E+01   0.00000000000000E+00  -1.86644031588690E-07
      1.26595473617060E-06  -1.33358705121164E-06  -2.54276346629727E-07  -1.58702105079177E-13
      1.60859375000000E-11
      8.00000000000000E-01   8.00000000000000E-01   0.00000000000000E+00   9.46400930248844E-10   6.48107041688743E-07
     -3.40796973521042E-07   3.08256469097950E-07   2.32746065006407E-13   0.00000000000000E+00   0.00000000000000E+00
      0.00000000000000E+00   1.16252423645265E-09  -1.97180736796042E-16   3.03735426997790E-07   3.04897951037062E-07
     -7.40421208424163E-14  -4.00000000000000E+01  -4.00000000000000E+01   0.00000000000000E+00  -4.48052928463675E-07
      6.67071122265412E-07  -8.32172613936746E-07  -6.13154420135009E-07  -1.58703944163992E-13
      2.46289062500000E-11
      8.00000000000000E-01   8.00000000000000E-01   0.00000000000000E+00   1.34514064190063E-10   4.12178224749501E-07
     -8.51274178886511E-09   4.03799997024826E-07   2.32747519337223E-13   0.00000000000000E+00   0.00000000000000E+00
      0.00000000000000E+00  -1.65112659203948E-10  -1.97180625437820E-16   3.56469293941067E-07   3.56304181084683E-07
     -7.40392403512414E-14  -4.00000000000000E+01  -4.00000000000000E+01   0.00000000000000E+00  -5.48280224850969E-07
      1.23607053488348E-09  -2.13060023793424E-07  -7.60104178109510E-07  -1.58708278985982E-13
      3.74433593750000E-11
      8.00000000000000E-01   8.00000000000000E-01   0.00000000000000E+00   1.02641737138721E-10   4.46765754843085E-07
     -7.17676499279360E-09   4.39691631587431E-07   2.32750132606055E-13   0.00000000000000E+00   0.00000000000000E+00
      0.00000000000000E+00  -1.30685151667476E-10  -1.97180690188405E-16   3.21229890050162E-07   3.21099204701314E-07
     -7.40349053409307E-14  -4.00000000000000E+01  -4.00000000000000E+01   0.00000000000000E+00  -5.36079823207254E-07
     -5.94234025795489E-15  -2.24711007139149E-07  -7.60790836288744E-07  -1.58715227265124E-13
      5.66650390625000E-11
      8.00000000000000E-01   8.00000000000000E-01   0.00000000000000E+00   7.33560696096499E-11   4.85073412975234E-07
     -6.21496237461778E-09   4.78931806670225E-07   2.32754499788743E-13   0.00000000000000E+00   0.00000000000000E+00
      0.00000000000000E+00  -9.77557161588811E-11  -1.97180765655649E-16   2.79781703236827E-07   2.79683947323487E-07
     -7.40291438538146E-14  -4.00000000000000E+01  -4.00000000000000E+01   0.00000000000000E+00  -5.17947989045060E-07
     -5.94267568984996E-15  -2.40667759005976E-07  -7.58615753993712E-07  -1.58725355934928E-13
      8.54975585937500E-11
      8.00000000000000E-01   8.00000000000000E-01   0.00000000000000E+00   4.62342011167409E-11   5.22989669918855E-07
     -5.00705501022007E-09   5.18028849109751E-07   2.32761687138944E-13   0.00000000000000E+00   0.00000000000000E+00
      0.00000000000000E+00  -6.66347966645580E-11  -1.97180845687977E-16   2.35217956279295E-07   2.35151321285450E-07
     -7.40217472415755E-14  -4.00000000000000E+01  -4.00000000000000E+01   0.00000000000000E+00  -4.94013007310271E-07
     -5.94302812188212E-15  -2.59167157141901E-07  -7.53180170395200E-07  -1.58739939897367E-13
      1.28746337890625E-10
      8.00000000000000E-01   8.00000000000000E-01   0.00000000000000E+00   2.32108167323239E-11   5.54494772732072E-07
     -3.61915376895598E-09   5.50898829779848E-07   2.32773214732894E-13   0.00000000000000E+00   0.00000000000000E+00
      0.00000000000000E+00  -3.98846946491782E-11  -1.97180921962503E-16   1.92076071196259E-07   1.92036186304429E-07
     -7.40125567292835E-14  -4.00000000000000E+01  -4.00000000000000E+01   0.00000000000000E+00  -4.64668692530653E-07
     -5.94352961189696E-15  -2.78266317610095E-07  -7.42935016084277E-07  -1.58760658003610E-13
      1.93619506835937E-10
      8.00000000000000E-01   8.00000000000000E-01   0.00000000000000E+00   6.60539304230012E-12   5.72443299640538E-07
     -2.22247269737791E-09   5.70227432336202E-07   2.32791047872381E-13   0.00000000000000E+00   0.00000000000000E+00
      0.00000000000000E+00  -2.08886742632620E-11  -1.97180985645035E-16   1.55476376509069E-07   1.55455487637625E-07
     -7.40013580333752E-14  -4.00000000000000E+01  -4.00000000000000E+01   0.00000000000000E+00  -4.31196127265029E-07
     -5.94423340781949E-15  -2.94486786764564E-07  -7.25682919973827E-07  -1.58789689839006E-13
      2.42274383544922E-10
      8.00000000000000E-01   8.00000000000000E-01   0.00000000000000E+00   1.19392105611343E-12   5.74573016673877E-07
     -1.54855809524339E-09   5.73025652499689E-07   2.32804396656995E-13   0.00000000000000E+00   0.00000000000000E+00
      0.00000000000000E+00  -1.49694452388882E-11  -1.97181014322845E-16   1.39027278876660E-07   1.39012309234240E-07
     -7.39942137721594E-14  -4.00000000000000E+01  -4.00000000000000E+01   0.00000000000000E+00  -4.11461260979075E-07
     -5.94473064603881E-15  -3.00576694810122E-07  -7.12037961733928E-07  -1.58810182884835E-13
      2.78765541076660E-10
      8.00000000000000E-01   8.00000000000000E-01   0.00000000000000E+00  -9.18425257211375E-13   5.73394919442233E-07
     -1.18431444915957E-09   5.72209686567816E-07   2.32814283969770E-13   0.00000000000000E+00   0.00000000000000E+00
      0.00000000000000E+00  -1.27877324820143E-11  -1.97181031561368E-16   1.29407497252422E-07   1.29394709322759E-07
     -7.39893248247640E-14  -4.00000000000000E+01  -4.00000000000000E+01   0.00000000000000E+00  -3.98496727320816E-07
     -5.94508929045650E-15  -3.03107662624671E-07  -7.01604395890575E-07  -1.58824959145007E-13
      3.33502277374268E-10
      8.00000000000000E-01   8.00000000000000E-01   0.00000000000000E+00  -2.40377365783042E-12   5.69763830669568E-07
     -7.94307725789493E-10   5.68967119170121E-07   2.32828883944198E-13   0.00000000000000E+00   0.00000000000000E+00
      0.00000000000000E+00  -1.13887710423522E-11  -1.97181055143610E-16   1.16846809893100E-07   1.16835420924876E-07
     -7.39825973445886E-14  -4.00000000000000E+01  -4.00000000000000E+01   0.00000000000000E+00  -3.80931466270303E-07
     -5.94560703858267E-15  -3.04871067879088E-07  -6.85802540094998E-07  -1.58846286599607E-13
      3.74554829597473E-10
      8.00000000000000E-01   8.00000000000000E-01   0.00000000000000E+00  -2.73509816440839E-12   5.66504295421733E-07
     -5.91814725787098E-10   5.65909745597781E-07   2.32839662733669E-13   0.00000000000000E+00   0.00000000000000E+00
      0.00000000000000E+00  -1.11910948581570E-11  -1.97181072635562E-16   1.08005715878021E-07   1.07994524585982E-07
     -7.39779884000804E-14  -4.00000000000000E+01  -4.00000000000000E+01   0.00000000000000E+00  -3.68785824753463E-07
     -5.94598063443217E-15  -3.05118439484322E-07  -6.73904270183765E-07  -1.58861674333587E-13
      4.36133657932282E-10
      8.00000000000000E-01   8.00000000000000E-01   0.00000000000000E+00  -2.64211013439454E-12   5.61796102994263E-07
     -3.83163007736364E-10   5.61410297876392E-07   2.32855607268440E-13   0.00000000000000E+00   0.00000000000000E+00
      0.00000000000000E+00  -1.15066546410779E-11  -1.97181100282410E-16   9.46720751380014E-08   9.46605682861793E-08
     -7.39717554766489E-14  -4.00000000000000E+01  -4.00000000000000E+01   0.00000000000000E+00  -3.51592101012692E-07
     -5.94651909448468E-15  -3.04478759203361E-07  -6.56070866162572E-07  -1.58883851791790E-13
      5.28501900434494E-10
      8.00000000000000E-01   8.00000000000000E-01   0.00000000000000E+00  -1.97291502417551E-12   5.56154128727491E-07
     -2.03581162041222E-10   5.55948574650426E-07   2.32879187525437E-13   0.00000000000000E+00   0.00000000000000E+00
      0.00000000000000E+00  -1.24766579586153E-11  -1.97181146431889E-16   7.35230951064054E-08   7.35106182512657E-08
     -7.39639914231562E-14  -4.00000000000000E+01  -4.00000000000000E+01   0.00000000000000E+00  -3.27191096101879E-07
     -5.94728010085814E-15  -3.02268090852534E-07  -6.29459192901693E-07  -1.58915196102281E-13
      5.97778082311153E-10
      8.00000000000000E-01   8.00000000000000E-01   0.00000000000000E+00  -1.37510095751314E-12   5.53291336896746E-07
     -1.30988332542080E-10   5.53158973463247E-07   2.32896740728242E-13   0.00000000000000E+00   0.00000000000000E+00
      0.00000000000000E+00  -1.32490892979846E-11  -1.97181184995384E-16   5.65035494936786E-08   5.64903002071994E-08
     -7.39594906832410E-14  -4.00000000000000E+01  -4.00000000000000E+01   0.00000000000000E+00  -3.09537159032495E-07
     -5.94781550540026E-15  -3.00112108690137E-07  -6.09649273670448E-07  -1.58937250045001E-13
      7.01692355126143E-10
      8.00000000000000E-01   8.00000000000000E-01   0.00000000000000E+00  -5.80250440337836E-13   5.51036418427942E-07
     -7.13038169055169E-11   5.50964534360596E-07   2.32923098500221E-13   0.00000000000000E+00   0.00000000000000E+00
      0.00000000000000E+00  -1.42160075601580E-11  -1.97181248667674E-16   2.92432170638806E-08   2.92290008591392E-08
     -7.39550320501191E-14  -4.00000000000000E+01  -4.00000000000000E+01   0.00000000000000E+00  -2.83619780776134E-07
     -5.94856354935957E-15  -2.96573748495037E-07  -5.80193535219735E-07  -1.58968066450102E-13
      7.79628059737384E-10
      8.00000000000000E-01   8.00000000000000E-01   0.00000000000000E+00  -1.01750919477864E-13   5.50686279470659E-07
     -4.82152002844206E-11   5.50637962519455E-07   2.32943013996641E-13   0.00000000000000E+00   0.00000000000000E+00
      0.00000000000000E+00  -1.47663013651510E-11  -1.97181300438539E-16   7.68033928261390E-09   7.66557278406745E-09
     -7.39535897275425E-14  -4.00000000000000E+01  -4.00000000000000E+01   0.00000000000000E+00  -2.64486033899578E-07
     -5.94908192687825E-15  -2.93817495454861E-07  -5.58303535303521E-07  -1.58989424269099E-13
      8.96531616654247E-10
      8.00000000000000E-01   8.00000000000000E-01   0.00000000000000E+00   4.06928161381089E-13   5.51709072000374E-07
     -2.96001651817013E-11   5.51679878763353E-07   2.32973321585309E-13   0.00000000000000E+00   0.00000000000000E+00
      0.00000000000000E+00  -1.53053157900687E-11  -1.97181383335357E-16  -2.58862965692545E-08  -2.59016020822260E-08
     -7.39546371404020E-14  -4.00000000000000E+01  -4.00000000000000E+01   0.00000000000000E+00  -2.36132498824911E-07
     -5.94979200852708E-15  -2.89645771906425E-07  -5.25778276681128E-07  -1.59018684444905E-13
      9.84209284341894E-10
      8.00000000000000E-01   8.00000000000000E-01   0.00000000000000E+00   6.20865975028282E-13   5.53297148877511E-07
     -2.23768902081023E-11   5.53275392853278E-07   2.32996482184768E-13   0.00000000000000E+00   0.00000000000000E+00
      0.00000000000000E+00  -1.54845256821389E-11  -1.97181448902320E-16  -5.16407885261407E-08  -5.16562732490043E-08
     -7.39580168645515E-14  -4.00000000000000E+01  -4.00000000000000E+01   0.00000000000000E+00  -2.15101424367363E-07
     -5.95027198619425E-15  -2.86517689286641E-07  -5.01619119604275E-07  -1.59038465320216E-13
      1.11572578587336E-09
      8.00000000000000E-01   8.00000000000000E-01   0.00000000000000E+00   6.29810381988041E-13   5.56094278250918E-07
     -1.62877028388842E-11   5.56078620358461E-07   2.33032008941376E-13   0.00000000000000E+00   0.00000000000000E+00
      0.00000000000000E+00  -1.53327275035343E-11  -1.97181551345615E-16  -9.03215098703448E-08  -9.03368427950299E-08
     -7.39673088188731E-14  -4.00000000000000E+01  -4.00000000000000E+01   0.00000000000000E+00  -1.83890436175149E-07
     -5.95090849302447E-15  -2.81851335437372E-07  -4.65741777563429E-07  -1.59064700122503E-13
      1.21436316202197E-09
      8.00000000000000E-01   8.00000000000000E-01   0.00000000000000E+00   3.28021826006535E-13   5.57795677014671E-07
     -1.36843169228352E-11   5.57782320719574E-07   2.33059263773710E-13   0.00000000000000E+00   0.00000000000000E+00
      0.00000000000000E+00  -1.47980093368018E-11  -1.97181630571974E-16  -1.18653766642844E-07  -1.18668564849363E-07
     -7.39775679566685E-14  -4.00000000000000E+01  -4.00000000000000E+01   0.00000000000000E+00  -1.60737754916491E-07
     -5.95132080051611E-15  -2.78375995002400E-07  -4.39113755870212E-07  -1.59081695817041E-13
      1.36231922624487E-09
      8.00000000000000E-01   8.00000000000000E-01   0.00000000000000E+00  -8.26803241254768E-13   5.57635666781162E-07
     -1.11773205055072E-11   5.57623662657415E-07   2.33100894965776E-13   0.00000000000000E+00   0.00000000000000E+00
      0.00000000000000E+00  -1.30359971093264E-11  -1.97181750837209E-16  -1.57978478165954E-07  -1.57991514360245E-07
     -7.39979585909854E-14  -4.00000000000000E+01  -4.00000000000000E+01   0.00000000000000E+00  -1.26426966369277E-07
     -5.95183605107001E-15  -2.73205175976057E-07  -3.99632148297170E-07  -1.59102936374790E-13
      1.47328627441205E-09
      8.00000000000000E-01   8.00000000000000E-01   0.00000000000000E+00  -2.38898084983084E-12   5.53545643903846E-07
     -9.90255272935029E-12   5.53533352370267E-07   2.33132358091991E-13   0.00000000000000E+00   0.00000000000000E+00
      0.00000000000000E+00  -1.07421505508526E-11  -1.97181838881197E-16  -1.83101084952603E-07  -1.83111827300336E-07
     -7.40168015647106E-14  -4.00000000000000E+01  -4.00000000000000E+01   0.00000000000000E+00  -1.01061110293925E-07
     -5.95214218030511E-15  -2.69360408823865E-07  -3.70421525069932E-07  -1.59115556527280E-13
      1.63973684666282E-09
      8.00000000000000E-01   8.00000000000000E-01   0.00000000000000E+00  -5.95625640940835E-12   5.36448117655514E-07
     -8.47172728212616E-12   5.36433689671823E-07   2.33178628643033E-13   0.00000000000000E+00   0.00000000000000E+00
      0.00000000000000E+00  -5.52188129880297E-12  -1.97181951093034E-16  -2.08954395024352E-07  -2.08959917102833E-07
     -7.40493579511678E-14  -4.00000000000000E+01  -4.00000000000000E+01   0.00000000000000E+00  -6.38255891856150E-08
     -5.95247486547777E-15  -2.63648177430899E-07  -3.27473772568988E-07  -1.59129270691866E-13
      1.76457477585089E-09
      8.00000000000000E-01   8.00000000000000E-01   0.00000000000000E+00  -9.38548817793768E-12   5.12165769176816E-07
     -7.63422495128301E-12   5.12148749463687E-07   2.33211318809320E-13   0.00000000000000E+00   0.00000000000000E+00
      0.00000000000000E+00  -4.19433678987785E-13  -1.97181999128381E-16  -2.15897130127168E-07  -2.15897549758029E-07
     -7.40757701820329E-14  -4.00000000000000E+01  -4.00000000000000E+01   0.00000000000000E+00  -3.68427945587327E-08
     -5.95262719688670E-15  -2.59408399194298E-07  -2.96251199705658E-07  -1.59135548627287E-13
      1.85820322274195E-09
      8.00000000000000E-01   8.00000000000000E-01   0.00000000000000E+00  -1.21079204138986E-11   4.86452724788556E-07
     -7.09247119672138E-12   4.86433524396945E-07   2.33233811567912E-13   0.00000000000000E+00   0.00000000000000E+00
      0.00000000000000E+00   3.74106341744810E-12  -1.97181998065474E-16  -2.12785033922321E-07  -2.12781293056085E-07
     -7.40957270444651E-14  -4.00000000000000E+01  -4.00000000000000E+01   0.00000000000000E+00  -1.73974879722914E-08
     -5.95268876965391E-15  -2.56254737415879E-07  -2.73652231340859E-07  -1.59138084523447E-13
      1.99864589307854E-09
      8.00000000000000E-01   8.00000000000000E-01   0.00000000000000E+00  -1.57787307044531E-11   4.36141778734110E-07
     -6.38211256130992E-12   4.36119617890844E-07   2.33262787655224E-13   0.00000000000000E+00   0.00000000000000E+00
      0.00000000000000E+00   9.68091180177688E-12  -1.97181903537856E-16  -1.94507923774488E-07  -1.94498243059869E-07
     -7.41241953075102E-14  -4.00000000000000E+01  -4.00000000000000E+01   0.00000000000000E+00   9.94753027397691E-09
     -5.95270121821234E-15  -2.51568899152251E-07  -2.41621374830976E-07  -1.59138592347715E-13
      2.10397789583097E-09
      8.00000000000000E-01   8.00000000000000E-01   0.00000000000000E+00  -1.77752601132471E-11   3.90693300735295E-07
     -5.91459968951254E-12   3.90669610875492E-07   2.33279863194109E-13   0.00000000000000E+00   0.00000000000000E+00
      0.00000000000000E+00   1.33083660642451E-11  -1.97181736965317E-16  -1.71220335758646E-07  -1.71207027589764E-07
     -7.41433106499534E-14  -4.00000000000000E+01  -4.00000000000000E+01   0.00000000000000E+00   2.86292306034099E-08
     -5.95265186732466E-15  -2.48091807936486E-07  -2.19462583285728E-07  -1.59136552544157E-13
      2.26197589995963E-09
      8.00000000000000E-01   8.00000000000000E-01   0.00000000000000E+00  -1.89344844779582E-11   3.15798731231048E-07
     -5.29606476474177E-12   3.15774500681805E-07   2.33296637051621E-13   0.00000000000000E+00   0.00000000000000E+00
      0.00000000000000E+00   1.64972213488444E-11  -1.97181292529926E-16  -1.25851028261072E-07  -1.25834531236904E-07
     -7.41665651392691E-14  -4.00000000000000E+01  -4.00000000000000E+01   0.00000000000000E+00   5.30019275591704E-08
     -5.95249490034264E-15  -2.42941891051577E-07  -1.89939969444901E-07  -1.59130071912351E-13
      2.38047440305613E-09
      8.00000000000000E-01   8.00000000000000E-01   0.00000000000000E+00  -1.82795062855435E-11   2.58972020060763E-07
     -4.88694836526074E-12   2.58948853606112E-07   2.33301911489345E-13   0.00000000000000E+00   0.00000000000000E+00
      0.00000000000000E+00   1.69084044104359E-11  -1.97180789270847E-16  -8.79520845926422E-08  -8.79351763854126E-08
     -7.41790302795773E-14  -4.00000000000000E+01  -4.00000000000000E+01   0.00000000000000E+00   6.81219602423492E-08
     -5.95232067386658E-15  -2.39135631510728E-07  -1.71013677220699E-07  -1.59122881209769E-13
      2.55822215770087E-09
      8.00000000000000E-01   8.00000000000000E-01   0.00000000000000E+00  -1.53942046022866E-11   1.81672950920290E-07
     -4.34434830389818E-12   1.81653212367383E-07   2.33298658447668E-13   0.00000000000000E+00   0.00000000000000E+00
      0.00000000000000E+00   1.48521770227846E-11  -1.97179760347784E-16  -3.38365424776608E-08  -3.38216904978177E-08
     -7.41894924102016E-14  -4.00000000000000E+01  -4.00000000000000E+01   0.00000000000000E+00   8.56951909662978E-08
     -5.95198829930116E-15  -2.33526706883875E-07  -1.47831521869565E-07  -1.59109166037467E-13
      2.69153297368442E-09
      8.00000000000000E-01   8.00000000000000E-01   0.00000000000000E+00  -1.24012186940478E-11   1.33942012407142E-07
     -3.98449872624420E-12   1.33925626689722E-07   2.33288560612778E-13   0.00000000000000E+00   0.00000000000000E+00
      0.00000000000000E+00   1.19851331292886E-11  -1.97178799760486E-16   2.44388007545468E-10   2.56372943495957E-10
     -7.41914697335244E-14  -4.00000000000000E+01  -4.00000000000000E+01   0.00000000000000E+00   9.52230121146418E-08
     -5.95169562776873E-15  -2.29405005796164E-07  -1.34181999633218E-07  -1.59097090879253E-13
      2.89149919765975E-09
      8.00000000000000E-01   8.00000000000000E-01   0.00000000000000E+00  -7.96275414098900E-12   8.16082098948672E-08
     -3.50542550124679E-12   8.15967417152250E-08   2.33264337636536E-13   0.00000000000000E+00   0.00000000000000E+00
      0.00000000000000E+00   7.29342967561228E-12  -1.97177165370394E-16   3.67881646286192E-08   3.67954578611176E-08
     -7.41873018028274E-14  -4.00000000000000E+01  -4.00000000000000E+01   0.00000000000000E+00   1.04971644655975E-07
     -5.95120948426220E-15  -2.23363838281108E-07  -1.18392199576343E-07  -1.59077035833711E-13
      3.04147386564125E-09
      8.00000000000000E-01   8.00000000000000E-01   0.00000000000000E+00  -5.26178130420915E-12   5.61024344233544E-08
     -3.18636633115346E-12   5.60939862757190E-08   2.33241210585711E-13   0.00000000000000E+00   0.00000000000000E+00
      0.00000000000000E+00   4.27205082730044E-12  -1.97175882317140E-16   5.31399413870933E-08   5.31442132407448E-08
     -7.41802827984395E-14  -4.00000000000000E+01  -4.00000000000000E+01   0.00000000000000E+00   1.09697937096480E-07
     -5.95081897300098E-15  -2.18936130662125E-07  -1.09238199516464E-07  -1.59060927787271E-13
      3.26643586761350E-09
      8.00000000000000E-01   8.00000000000000E-01   0.00000000000000E+00  -2.58322353542822E-12   3.35966367449801E-08
     -2.76080250974022E-12   3.35912927189349E-08   2.33202331357179E-13   0.00000000000000E+00   0.00000000000000E+00
      0.00000000000000E+00   1.17202335177263E-12  -1.97174062042089E-16   6.44061225271113E-08   6.44072943532890E-08
     -7.41666301674202E-14  -4.00000000000000E+01  -4.00000000000000E+01   0.00000000000000E+00   1.14399126430470E-07
     -5.95020732921611E-15  -2.12397707552486E-07  -9.79985870722236E-08  -1.59035701189760E-13
      3.43515736909269E-09
      8.00000000000000E-01   8.00000000000000E-01   0.00000000000000E+00  -1.47814222819079E-12   2.47633571356205E-08
     -2.47806530211023E-12   2.47594009280902E-08   2.33171584340752E-13   0.00000000000000E+00   0.00000000000000E+00
      0.00000000000000E+00  -1.37903178056852E-13  -1.97172875596019E-16   6.59277615237603E-08   6.59276234234094E-08
     -7.41553921777876E-14  -4.00000000000000E+01  -4.00000000000000E+01   0.00000000000000E+00   1.16801975025030E-07
     -5.94973426099696E-15  -2.07488993426795E-07  -9.06870243514992E-08  -1.59016192162967E-13
      3.56169849520208E-09
      8.00000000000000E-01   8.00000000000000E-01   0.00000000000000E+00  -9.98534434333339E-13   2.06779519023337E-08
     -2.28420721293925E-12   2.06746691606864E-08   2.33148281536740E-13   0.00000000000000E+00   0.00000000000000E+00
      0.00000000000000E+00  -7.16731023985472E-13  -1.97172119007641E-16   6.48467702162653E-08   6.48460532880692E-08
     -7.41469603119808E-14  -4.00000000000000E+01  -4.00000000000000E+01   0.00000000000000E+00   1.18209929475809E-07
     -5.94937363229269E-15  -2.03730645975191E-07  -8.55207224487557E-08  -1.59001321224759E-13
      3.65660433978412E-09
      8.00000000000000E-01   8.00000000000000E-01   0.00000000000000E+00  -7.64361934509974E-13   1.84822147266037E-08
     -2.14829588118824E-12   1.84793020687880E-08   2.33130832078194E-13   0.00000000000000E+00   0.00000000000000E+00
      0.00000000000000E+00  -9.95111106955656E-13  -1.97171630301773E-16   6.32761491878154E-08   6.32751538795369E-08
     -7.41407712634622E-14  -4.00000000000000E+01  -4.00000000000000E+01   0.00000000000000E+00   1.19072092462406E-07
     -5.94910054598606E-15  -2.00826542461630E-07  -8.17544559483249E-08  -1.58990060814731E-13
      3.69219403150239E-09
      8.00000000000000E-01   8.00000000000000E-01   0.00000000000000E+00  -6.97067373299053E-13   1.77956033042049E-08
     -2.09933062457870E-12   1.77928069062070E-08   2.33124310861752E-13   0.00000000000000E+00   0.00000000000000E+00
      0.00000000000000E+00  -1.07380547598906E-12  -1.97171464171311E-16   6.25685789082296E-08   6.25675049055821E-08
     -7.41384927956998E-14  -4.00000000000000E+01  -4.00000000000000E+01   0.00000000000000E+00   1.19351471088081E-07
     -5.94899764810086E-15  -1.99711776950872E-07  -8.03603118117892E-08  -1.58985818066052E-13
      3.70554016589674E-09
      8.00000000000000E-01   8.00000000000000E-01   0.00000000000000E+00  -6.73916538272945E-13   1.75536992516393E-08
     -2.08124249692819E-12   1.75509440926041E-08   2.33121869676108E-13   0.00000000000000E+00   0.00000000000000E+00
      0.00000000000000E+00  -1.10606464298140E-12  -1.97171404225103E-16   6.22899010279167E-08   6.22887947661024E-08
     -7.41376451487614E-14  -4.00000000000000E+01  -4.00000000000000E+01   0.00000000000000E+00   1.19449756573887E-07
     -5.94895900013424E-15  -1.99289489483634E-07  -7.98397388587064E-08  -1.58984224527347E-13
      3.71554976669250E-09
      8.00000000000000E-01   8.00000000000000E-01   0.00000000000000E+00  -6.57820100195919E-13   1.73773942588882E-08
     -2.06777332650781E-12   1.73746686654615E-08   2.33120040463535E-13   0.00000000000000E+00   0.00000000000000E+00
      0.00000000000000E+00  -1.10515064474084E-12  -1.97171360096463E-16   6.20765085556367E-08   6.20754032078207E-08
     -7.41370119384526E-14  -4.00000000000000E+01  -4.00000000000000E+01   0.00000000000000E+00   1.19521088791936E-07
     -5.94892999343310E-15  -1.98971154716288E-07  -7.94500718732823E-08  -1.58983028525082E-13
      3.73056416788615E-09
      8.00000000000000E-01   8.00000000000000E-01   0.00000000000000E+00  -6.33818674178213E-13   1.71207446548169E-08
     -2.04772423510338E-12   1.71180631119077E-08   2.33117299482736E-13   0.00000000000000E+00   0.00000000000000E+00
      0.00000000000000E+00  -1.15284432841559E-12  -1.97171295226365E-16   6.17498582169974E-08   6.17487051754977E-08
     -7.41360662722388E-14  -4.00000000000000E+01  -4.00000000000000E+01   0.00000000000000E+00   1.19624186767349E-07
     -5.94888645133542E-15  -1.98490949105867E-07  -7.88667682874053E-08  -1.58981233210497E-13
      3.75308576967661E-09
      8.00000000000000E-01   8.00000000000000E-01   0.00000000000000E+00  -6.01107352569686E-13   1.67522769685727E-08
     -2.01799564631573E-12   1.67496578655739E-08   2.33113194768230E-13   0.00000000000000E+00   0.00000000000000E+00
      0.00000000000000E+00  -1.18398131236756E-12  -1.97171200862479E-16   6.12459583105812E-08   6.12447741320977E-08
     -7.41346573369583E-14  -4.00000000000000E+01  -4.00000000000000E+01   0.00000000000000E+00   1.19769858080106E-07
     -5.94882106955372E-15  -1.97764284128956E-07  -7.79944319976714E-08  -1.58978537431273E-13
      3.78686817236231E-09
      8.00000000000000E-01   8.00000000000000E-01   0.00000000000000E+00  -5.57415870884051E-13   1.62333935026282E-08
     -1.97416927957350E-12   1.62308619174777E-08   2.33107054099179E-13   0.00000000000000E+00   0.00000000000000E+00