DF-ISE text

Info {
  version   = 1.0
  type      = xyplot
  datasets  = [
    "time"
    "Ntop OuterVoltage" "Ntop InnerVoltage" "Ntop QuasiFermiPotential" "Ntop DisplacementCurrent" "Ntop eCurrent"
    "Ntop hCurrent" "Ntop TotalCurrent" "Ntop Charge" "Ptop OuterVoltage" "Ptop InnerVoltage"
    "Ptop QuasiFermiPotential" "Ptop DisplacementCurrent" "Ptop eCurrent" "Ptop hCurrent" "Ptop TotalCurrent"
    "Ptop Charge" "Pbot OuterVoltage" "Pbot InnerVoltage" "Pbot QuasiFermiPotential" "Pbot DisplacementCurrent"
    "Pbot eCurrent" "Pbot hCurrent" "Pbot TotalCurrent" "Pbot Charge" ]
  functions = [
    Time
    OuterVoltage InnerVoltage QuasiFermiPotential DisplacementCurrent eCurrent
    hCurrent TotalCurrent Charge OuterVoltage InnerVoltage
    QuasiFermiPotential DisplacementCurrent eCurrent hCurrent TotalCurrent
    Charge OuterVoltage InnerVoltage QuasiFermiPotential DisplacementCurrent
    eCurrent hCurrent TotalCurrent Charge ]
}

Data {
      5.00000000000000E-13
      8.00000000000000E-01   8.00000000000000E-01   0.00000000000000E+00   1.17833832707675E-14   7.42524061291245E-12
     -6.86996790518300E-12   5.67056091000216E-13   2.32745367027466E-13   0.00000000000000E+00   0.00000000000000E+00
      0.00000000000000E+00  -1.03804260934450E-13  -1.97181352815142E-16   1.99593346212133E-11   1.98553331789261E-11
     -7.40436337748749E-14  -4.00000000000000E+01  -4.00000000000000E+01   0.00000000000000E+00  -3.73511801279194E-13
      1.37004857844031E-11  -3.37493632530501E-11  -2.04223892699262E-11  -1.58701733252591E-13
      1.25000000000000E-12
      8.00000000000000E-01   8.00000000000000E-01   0.00000000000000E+00   9.01558189306272E-14   3.34120243251919E-11
     -3.17001464696100E-11   1.80203367451252E-12   2.32745367027774E-13   0.00000000000000E+00   0.00000000000000E+00
      0.00000000000000E+00  -3.93803894404428E-14  -1.97181352812919E-16   2.10650978646826E-11   2.10255202938893E-11
     -7.40436337742859E-14  -4.00000000000000E+01  -4.00000000000000E+01   0.00000000000000E+00  -2.13602449431311E-12
      6.32257969427663E-11  -8.39173264168550E-11  -2.28275539684018E-11  -1.58701733253487E-13
      2.37500000000000E-12
      8.00000000000000E-01   8.00000000000000E-01   0.00000000000000E+00   6.82857354943201E-13   2.77982356957221E-10
     -2.62290188687703E-10   1.63750256244609E-11   2.32745367032235E-13   0.00000000000000E+00   0.00000000000000E+00
      0.00000000000000E+00   1.04697248823510E-12  -1.97181352786787E-16   3.40473718411098E-11   3.50941471479921E-11
     -7.40436337654409E-14  -4.00000000000000E+01  -4.00000000000000E+01   0.00000000000000E+00  -2.31725398839530E-11
      5.23011559592955E-10  -5.51308192481455E-10  -5.14691727724528E-11  -1.58701733266794E-13
      4.06250000000000E-12
      8.00000000000000E-01   8.00000000000000E-01   0.00000000000000E+00   1.02329597150212E-11   4.30425870958979E-09
     -3.97900297852551E-09   3.35488690779299E-10   2.32745367162626E-13   0.00000000000000E+00   0.00000000000000E+00
      0.00000000000000E+00   1.50455748017774E-11  -1.97181352180329E-16   3.35020223601589E-10   3.50065601222015E-10
     -7.40436334975926E-14  -4.00000000000000E+01  -4.00000000000000E+01   0.00000000000000E+00  -4.88961678899893E-10
      7.93006605964030E-09  -8.12665867274173E-09  -6.85554292001317E-10  -1.58701733665033E-13
      6.59375000000000E-12
      8.00000000000000E-01   8.00000000000000E-01   0.00000000000000E+00   2.02891337821369E-10   8.91674055554569E-08
     -7.96294095745526E-08   9.74088731872578E-09   2.32745372672364E-13   0.00000000000000E+00   0.00000000000000E+00
      0.00000000000000E+00   3.04383099504077E-10  -1.97181333611119E-16   9.53853298646153E-09   9.84291588878428E-09
     -7.40436217486226E-14  -4.00000000000000E+01  -4.00000000000000E+01   0.00000000000000E+00  -1.43713532243151E-08
      1.58559660154490E-07  -1.63772110137685E-07  -1.95838032075100E-08  -1.58701750923742E-13
      1.03906250000000E-11
      8.00000000000000E-01   8.00000000000000E-01   0.00000000000000E+00   1.69126697301587E-09   7.92187294521822E-07
     -6.62774140168832E-07   1.31104421326005E-07   2.32745488690670E-13   0.00000000000000E+00   0.00000000000000E+00
      0.00000000000000E+00   2.52786010386787E-09  -1.97181088159711E-16   1.30989914733298E-07   1.33517774639985E-07
     -7.40433684838742E-14  -4.00000000000000E+01  -4.00000000000000E+01   0.00000000000000E+00  -1.94237259213534E-07
      1.31746977762453E-06  -1.38785471437699E-06  -2.64622195965990E-07  -1.58702120206796E-13
      1.60859375000000E-11
      8.00000000000000E-01   8.00000000000000E-01   0.00000000000000E+00   9.85009256714962E-10   6.74479444357043E-07
     -3.54664895509141E-07   3.20799558104618E-07   2.32746093332418E-13   0.00000000000000E+00   0.00000000000000E+00
      0.00000000000000E+00   1.20972520658975E-09  -1.97180711727347E-16   3.16095043426197E-07   3.17304768435606E-07
     -7.40420592530690E-14  -4.00000000000000E+01  -4.00000000000000E+01   0.00000000000000E+00  -4.66268248463563E-07
      6.94216008001993E-07  -8.66052086078653E-07  -6.38104326540223E-07  -1.58704034079350E-13
      2.46289062500000E-11
      8.00000000000000E-01   8.00000000000000E-01   0.00000000000000E+00   1.40108540830508E-10   4.28973518461301E-07
     -8.85921443746005E-09   4.20254412564671E-07   2.32747606635970E-13   0.00000000000000E+00   0.00000000000000E+00
      0.00000000000000E+00  -1.71971345321825E-10  -1.97180595882463E-16   3.70952719254878E-07   3.70780747712375E-07
     -7.40390616367383E-14  -4.00000000000000E+01  -4.00000000000000E+01   0.00000000000000E+00  -5.70539372399899E-07
      1.28636975083021E-09  -2.21782157627977E-07  -7.91035160277046E-07  -1.58708544999233E-13
      3.74433593750000E-11
      8.00000000000000E-01   8.00000000000000E-01   0.00000000000000E+00   1.06865917709006E-10   4.64990675062657E-07
     -7.46900288552363E-09   4.57628538094842E-07   2.32750325798176E-13   0.00000000000000E+00   0.00000000000000E+00
      0.00000000000000E+00  -1.36060150983784E-10  -1.97180663313094E-16   3.34257147137014E-07   3.34121086788850E-07
     -7.40345506507027E-14  -4.00000000000000E+01  -4.00000000000000E+01   0.00000000000000E+00  -5.57811325013103E-07
     -5.94234974684080E-15  -2.33938293928239E-07  -7.91749624883692E-07  -1.58715775147475E-13
      5.66650390625000E-11
      8.00000000000000E-01   8.00000000000000E-01   0.00000000000000E+00   7.63448088302697E-11   5.04866952273876E-07
     -6.46819429319314E-09   4.98475102789513E-07   2.32754869854313E-13   0.00000000000000E+00   0.00000000000000E+00
      0.00000000000000E+00  -1.01738650696072E-10  -1.97180741874185E-16   2.91111206436048E-07   2.91009467588171E-07
     -7.40285556747645E-14  -4.00000000000000E+01  -4.00000000000000E+01   0.00000000000000E+00  -5.38922204431113E-07
     -5.94269872075907E-15  -2.50562360003872E-07  -7.89484570377684E-07  -1.58726314179547E-13
      8.54975585937500E-11
      8.00000000000000E-01   8.00000000000000E-01   0.00000000000000E+00   4.80953028495653E-11   5.44317640450153E-07
     -5.21122961439361E-09   5.39154506138609E-07   2.32762348166321E-13   0.00000000000000E+00   0.00000000000000E+00
      0.00000000000000E+00  -6.93227297678807E-11  -1.97180825151558E-16   2.44740044191566E-07   2.44670721264617E-07
     -7.40208595826840E-14  -4.00000000000000E+01  -4.00000000000000E+01   0.00000000000000E+00  -5.14010206932943E-07
     -5.94306534447445E-15  -2.69815014527217E-07  -7.83825227403225E-07  -1.58741488583637E-13
      1.28746337890625E-10
      8.00000000000000E-01   8.00000000000000E-01   0.00000000000000E+00   2.41378724873194E-11   5.77083699541385E-07
     -3.76686509280110E-09   5.73340972321072E-07   2.32774342265659E-13   0.00000000000000E+00   0.00000000000000E+00
      0.00000000000000E+00  -4.14883008099774E-11  -1.97180904494271E-16   1.99860503463145E-07   1.99819014965154E-07
     -7.40112967957659E-14  -4.00000000000000E+01  -4.00000000000000E+01   0.00000000000000E+00  -4.83484864576991E-07
     -5.94358706231226E-15  -2.89675116765647E-07  -7.73159987286225E-07  -1.58763045469892E-13
      1.93619506835937E-10
      8.00000000000000E-01   8.00000000000000E-01   0.00000000000000E+00   6.87233799498653E-12   5.95748326704285E-07
     -2.31326216842158E-09   5.93441936873858E-07   2.32792897481191E-13   0.00000000000000E+00   0.00000000000000E+00
      0.00000000000000E+00  -2.17382048848185E-11  -1.97180970745893E-16   1.61783156619880E-07   1.61761418217814E-07
     -7.39996439543541E-14  -4.00000000000000E+01  -4.00000000000000E+01   0.00000000000000E+00  -4.48675844581833E-07
     -5.94431930998424E-15  -3.06527504565518E-07  -7.55203355091670E-07  -1.58793253526836E-13
      2.42274383544922E-10
      8.00000000000000E-01   8.00000000000000E-01   0.00000000000000E+00   1.24825698707870E-12   5.97968214759232E-07
     -1.61184270348337E-09   5.96357620312736E-07   2.32806787654269E-13   0.00000000000000E+00   0.00000000000000E+00
      0.00000000000000E+00  -1.55871914786685E-11  -1.97181000600525E-16   1.44660648091291E-07   1.44645060702631E-07
     -7.39922099901970E-14  -4.00000000000000E+01  -4.00000000000000E+01   0.00000000000000E+00  -4.28155082084091E-07
     -5.94483668692006E-15  -3.12847592986440E-07  -7.41002681015368E-07  -1.58814577664071E-13
      2.78765541076660E-10
      8.00000000000000E-01   8.00000000000000E-01   0.00000000000000E+00  -9.47467042084227E-13   5.96749166736354E-07
     -1.23272221734489E-09   5.95515497051967E-07   2.32817076664483E-13   0.00000000000000E+00   0.00000000000000E+00
      0.00000000000000E+00  -1.33193397326133E-11  -1.97181018556250E-16   1.34642459708580E-07   1.34629140171666E-07
     -7.39871230706426E-14  -4.00000000000000E+01  -4.00000000000000E+01   0.00000000000000E+00  -4.14673514508653E-07
     -5.94520987165989E-15  -3.15471116769772E-07  -7.30144637223634E-07  -1.58829953593842E-13
      3.33502277374268E-10
      8.00000000000000E-01   8.00000000000000E-01   0.00000000000000E+00  -2.49251321001993E-12   5.92982915105694E-07
     -8.26777750187213E-10   5.92153644842297E-07   2.32832270936671E-13   0.00000000000000E+00   0.00000000000000E+00
      0.00000000000000E+00  -1.18640966467401E-11  -1.97181043125974E-16   1.21558404285226E-07   1.21546539991398E-07
     -7.39801238182385E-14  -4.00000000000000E+01  -4.00000000000000E+01   0.00000000000000E+00  -3.96405527037745E-07
     -5.94574862728530E-15  -3.17294651850200E-07  -7.13700184833693E-07  -1.58852147118434E-13
      3.74554829597473E-10
      8.00000000000000E-01   8.00000000000000E-01   0.00000000000000E+00  -2.83815984764101E-12   5.89599955969952E-07
     -6.16005503094646E-10   5.88981112307010E-07   2.32843489295913E-13   0.00000000000000E+00   0.00000000000000E+00
      0.00000000000000E+00  -1.16573978900168E-11  -1.97181061350379E-16   1.12348671463254E-07   1.12337013868183E-07
     -7.39753292490482E-14  -4.00000000000000E+01  -4.00000000000000E+01   0.00000000000000E+00  -3.83772172864305E-07
     -5.94613739135202E-15  -3.17545947364752E-07  -7.01318126175194E-07  -1.58868160046864E-13
      4.36133657932282E-10
      8.00000000000000E-01   8.00000000000000E-01   0.00000000000000E+00  -2.74352315145678E-12   5.84711639430586E-07
     -3.98818898480083E-10   5.84310077008954E-07   2.32860085113557E-13   0.00000000000000E+00   0.00000000000000E+00
      0.00000000000000E+00  -1.19829635158573E-11  -1.97181090148987E-16   9.84614579386083E-08   9.84494747779113E-08
     -7.39688461966846E-14  -4.00000000000000E+01  -4.00000000000000E+01   0.00000000000000E+00  -3.65885548172524E-07
     -5.94669772280602E-15  -3.16873997667644E-07  -6.82759551786865E-07  -1.58891238916873E-13
      5.28501900434494E-10
      8.00000000000000E-01   8.00000000000000E-01   0.00000000000000E+00  -2.05055618234252E-12   5.78850805007762E-07
     -2.11886251887057E-10   5.78636868199692E-07   2.32884630172134E-13   0.00000000000000E+00   0.00000000000000E+00
      0.00000000000000E+00  -1.29880485283194E-11  -1.97181138204387E-16   7.64416094472195E-08   7.64286212015100E-08
     -7.39607724583911E-14  -4.00000000000000E+01  -4.00000000000000E+01   0.00000000000000E+00  -3.40497205176036E-07
     -5.94748965168864E-15  -3.14568278277677E-07  -6.55065489401202E-07  -1.58923857713742E-13
      5.97778082311153E-10
      8.00000000000000E-01   8.00000000000000E-01   0.00000000000000E+00  -1.43069720483918E-12   5.75874659448931E-07
     -1.36319099679768E-10   5.75736909652046E-07   2.32902902308493E-13   0.00000000000000E+00   0.00000000000000E+00
      0.00000000000000E+00  -1.37889677603491E-11  -1.97181178348660E-16   5.87264762330557E-08   5.87126870681142E-08
     -7.39560937109623E-14  -4.00000000000000E+01  -4.00000000000000E+01   0.00000000000000E+00  -3.22126883936671E-07
     -5.94804681570184E-15  -3.12322706835443E-07  -6.34449596720160E-07  -1.58946808597532E-13
      7.01692355126143E-10
      8.00000000000000E-01   8.00000000000000E-01   0.00000000000000E+00  -6.06448427233046E-13   5.73526048171556E-07
     -7.41861251827505E-11   5.73451255597946E-07   2.32930339861723E-13   0.00000000000000E+00   0.00000000000000E+00
      0.00000000000000E+00  -1.47918263393585E-11  -1.97181244615874E-16   3.03586378863847E-08   3.03438458628641E-08
     -7.39514614335245E-14  -4.00000000000000E+01  -4.00000000000000E+01   0.00000000000000E+00  -2.95155963480872E-07
     -5.94882526114124E-15  -3.08639132031114E-07  -6.03795101460810E-07  -1.58978878428199E-13
      7.79628059737384E-10
      8.00000000000000E-01   8.00000000000000E-01   0.00000000000000E+00  -1.10302352567394E-13   5.73155767207472E-07
     -5.01484889442979E-11   5.73105508416175E-07   2.32951070924948E-13   0.00000000000000E+00   0.00000000000000E+00
      0.00000000000000E+00  -1.53622851362896E-11  -1.97181298487060E-16   7.92388872894757E-09   7.90852624662998E-09
     -7.39499659652595E-14  -4.00000000000000E+01  -4.00000000000000E+01   0.00000000000000E+00  -2.75243581963863E-07
     -5.94936470425694E-15  -3.05770446749577E-07  -5.81014034662805E-07  -1.59001104959690E-13
      8.96531616654247E-10
      8.00000000000000E-01   8.00000000000000E-01   0.00000000000000E+00   4.16734277005901E-13   5.74205463967842E-07
     -3.07665903279746E-11   5.74175114111791E-07   2.32982618375235E-13   0.00000000000000E+00   0.00000000000000E+00
      0.00000000000000E+00  -1.59204141035376E-11  -1.97181384734589E-16  -2.69945825862027E-08  -2.70105031974876E-08
     -7.39510631985992E-14  -4.00000000000000E+01  -4.00000000000000E+01   0.00000000000000E+00  -2.45735578380273E-07
     -5.95010363663186E-15  -3.01429026583926E-07  -5.47164610914302E-07  -1.59031555176636E-13
      9.84209284341894E-10
      8.00000000000000E-01   8.00000000000000E-01   0.00000000000000E+00   6.37920313736050E-13   5.75843163785740E-07
     -2.32448984442887E-11   5.75820556807609E-07   2.33006725053118E-13   0.00000000000000E+00   0.00000000000000E+00
      0.00000000000000E+00  -1.61051061429099E-11  -1.97181452943556E-16  -5.37825524212089E-08  -5.37986577245333E-08
     -7.39545846006641E-14  -4.00000000000000E+01  -4.00000000000000E+01   0.00000000000000E+00  -2.23848031355547E-07
     -5.95060311133658E-15  -2.98173861776926E-07  -5.22021899083076E-07  -1.59052140452453E-13
      1.11572578587336E-09
      8.00000000000000E-01   8.00000000000000E-01   0.00000000000000E+00   6.45522410538188E-13   5.78726558899567E-07
     -1.69037291748807E-11   5.78710300692803E-07   2.33043700123069E-13   0.00000000000000E+00   0.00000000000000E+00
      0.00000000000000E+00  -1.59445092544290E-11  -1.97181559502829E-16  -9.40100167241593E-08  -9.40259614305953E-08
     -7.39642581985280E-14  -4.00000000000000E+01  -4.00000000000000E+01   0.00000000000000E+00  -1.91366337084707E-07
     -5.95126546691147E-15  -2.93317996226235E-07  -4.84684339262207E-07  -1.59079441924541E-13
      1.21436316202197E-09
      8.00000000000000E-01   8.00000000000000E-01   0.00000000000000E+00   3.30738801987920E-13   5.80473693309660E-07
     -1.41926520582439E-11   5.80459831396404E-07   2.33072063484201E-13   0.00000000000000E+00   0.00000000000000E+00
      0.00000000000000E+00  -1.53868690005111E-11  -1.97181641898822E-16  -1.23471260777946E-07  -1.23486647844128E-07
     -7.39749349585404E-14  -4.00000000000000E+01  -4.00000000000000E+01   0.00000000000000E+00  -1.67271698876220E-07
     -5.95169451453138E-15  -2.89701478724361E-07  -4.56973183552275E-07  -1.59097128525660E-13
      1.36231922624487E-09
      8.00000000000000E-01   8.00000000000000E-01   0.00000000000000E+00  -8.70523608968152E-13   5.80271538430032E-07
     -1.15824627375706E-11   5.80259085443686E-07   2.33115383604949E-13   0.00000000000000E+00   0.00000000000000E+00
      0.00000000000000E+00  -1.35530634503957E-11  -1.97181766896870E-16  -1.64358242684687E-07  -1.64371795945319E-07
     -7.39961510696476E-14  -4.00000000000000E+01  -4.00000000000000E+01   0.00000000000000E+00  -1.31566802667011E-07
     -5.95223068396122E-15  -2.84320480879124E-07  -4.15887289498366E-07  -1.59119232535302E-13
      1.47328627441205E-09
      8.00000000000000E-01   8.00000000000000E-01   0.00000000000000E+00  -2.49387150341991E-12   5.75992615515580E-07
     -1.02557638002208E-11   5.75979865880276E-07   2.33148120019857E-13   0.00000000000000E+00   0.00000000000000E+00
      0.00000000000000E+00  -1.11682631249415E-11  -1.97181858231267E-16  -1.90477287243874E-07  -1.90488455704181E-07
     -7.40157541398900E-14  -4.00000000000000E+01  -4.00000000000000E+01   0.00000000000000E+00  -1.05172106412121E-07
     -5.95254924646712E-15  -2.80319297811426E-07  -3.85491410176097E-07  -1.59132365879967E-13
      1.63973684666282E-09
      8.00000000000000E-01   8.00000000000000E-01   0.00000000000000E+00  -6.19893958558141E-12   5.58185309120524E-07
     -8.76753240672761E-12   5.58170342648532E-07   2.33196259875185E-13   0.00000000000000E+00   0.00000000000000E+00
      0.00000000000000E+00  -5.74412918402529E-12  -1.97181973820215E-16  -2.17360682970345E-07  -2.17366427296711E-07
     -7.40496213571638E-14  -4.00000000000000E+01  -4.00000000000000E+01   0.00000000000000E+00  -6.64294642373299E-08
     -5.95289546506623E-15  -2.74374445161595E-07  -3.40803915351820E-07  -1.59146638518021E-13
      1.76457477585089E-09
      8.00000000000000E-01   8.00000000000000E-01   0.00000000000000E+00  -9.76011638481785E-12   5.32927501583039E-07
     -7.89711164424803E-12   5.32909844355010E-07   2.33230270256965E-13   0.00000000000000E+00   0.00000000000000E+00
      0.00000000000000E+00  -4.43231254933314E-13  -1.97182021883846E-16  -2.24590883310669E-07  -2.24591326739106E-07
     -7.40770970141396E-14  -4.00000000000000E+01  -4.00000000000000E+01   0.00000000000000E+00  -3.83566917924897E-08
     -5.95305402400904E-15  -2.69961819870361E-07  -3.08318517615905E-07  -1.59153173242827E-13
      1.85820322274195E-09
      8.00000000000000E-01   8.00000000000000E-01   0.00000000000000E+00  -1.25878822469907E-11   5.06192439302239E-07
     -7.33442916397145E-12   5.06172516990828E-07   2.33253672671010E-13   0.00000000000000E+00   0.00000000000000E+00
      0.00000000000000E+00   3.87983702936891E-12  -1.97182018492528E-16  -2.21370193778319E-07  -2.21366314138472E-07
     -7.40978586581860E-14  -4.00000000000000E+01  -4.00000000000000E+01   0.00000000000000E+00  -1.81267060239293E-08
     -5.95311814487397E-15  -2.66679490875308E-07  -2.84806202852355E-07  -1.59155814012823E-13
      1.99864589307854E-09
      8.00000000000000E-01   8.00000000000000E-01   0.00000000000000E+00  -1.64029156094016E-11   4.53888665697677E-07
     -6.59716893966617E-12   4.53865665613128E-07   2.33283825133645E-13   0.00000000000000E+00   0.00000000000000E+00
      0.00000000000000E+00   1.00547330211248E-11  -1.97181915066678E-16  -2.02394826214030E-07  -2.02384771678191E-07
     -7.41274789628686E-14  -4.00000000000000E+01  -4.00000000000000E+01   0.00000000000000E+00   1.03214422012845E-08
     -5.95313119824921E-15  -2.61802330183089E-07  -2.51480893934936E-07  -1.59156346170776E-13
      2.10397789583097E-09
      8.00000000000000E-01   8.00000000000000E-01   0.00000000000000E+00  -1.84806389800929E-11   4.06637130580502E-07
     -6.11235865438563E-12   4.06612537582868E-07   2.33301599009561E-13   0.00000000000000E+00   0.00000000000000E+00
      0.00000000000000E+00   1.38294564885301E-11  -1.97181736590042E-16  -1.78200478128494E-07  -1.78186648869187E-07
     -7.41473720684134E-14  -4.00000000000000E+01  -4.00000000000000E+01   0.00000000000000E+00   2.97572832499939E-08
     -5.95307993778460E-15  -2.58183166010594E-07  -2.28425888713680E-07  -1.59154226941148E-13
      2.26197589995963E-09
      8.00000000000000E-01   8.00000000000000E-01   0.00000000000000E+00  -1.96931052928006E-11   3.28751404994669E-07
     -5.47152375473546E-12   3.28726240365621E-07   2.33319069222476E-13   0.00000000000000E+00   0.00000000000000E+00
      0.00000000000000E+00   1.71550440684252E-11  -1.97181264446004E-16  -1.31036750303828E-07  -1.31019595456941E-07
     -7.41715803064103E-14  -4.00000000000000E+01  -4.00000000000000E+01   0.00000000000000E+00   5.51160484925562E-08
     -5.95291676120838E-15  -2.52822687448320E-07  -1.97706644908681E-07  -1.59147488916066E-13
      2.38047440305613E-09
      8.00000000000000E-01   8.00000000000000E-01   0.00000000000000E+00  -1.90189119783372E-11   2.69633261027886E-07
     -5.04807329675862E-12   2.69609194042611E-07   2.33324573382958E-13   0.00000000000000E+00   0.00000000000000E+00
      0.00000000000000E+00   1.75916870229345E-11  -1.97180732334487E-16  -9.16161960155717E-08  -9.15986045257295E-08
     -7.41845626360788E-14  -4.00000000000000E+01  -4.00000000000000E+01   0.00000000000000E+00   7.08501254810820E-08
     -5.95273559245839E-15  -2.48860709045228E-07  -1.78010589516882E-07  -1.59140010746878E-13
      2.55822215770087E-09
      8.00000000000000E-01   8.00000000000000E-01   0.00000000000000E+00  -1.60262812569391E-11   1.89180541127488E-07
     -4.48698768693123E-12   1.89160027858544E-07   2.33321212180126E-13   0.00000000000000E+00   0.00000000000000E+00
      0.00000000000000E+00   1.54635115187585E-11  -1.97179648234094E-16  -3.52940039377604E-08  -3.52785406234213E-08
     -7.41954670805908E-14  -4.00000000000000E+01  -4.00000000000000E+01   0.00000000000000E+00   8.91407066574497E-08
     -5.95238991679808E-15  -2.43022187940184E-07  -1.53881487235124E-07  -1.59125745099536E-13
      2.69153297368442E-09
      8.00000000000000E-01   8.00000000000000E-01   0.00000000000000E+00  -1.29155793684847E-11   1.39478537048718E-07
     -4.11519600350781E-12   1.39461506273346E-07   2.33310719171644E-13   0.00000000000000E+00   0.00000000000000E+00
      0.00000000000000E+00   1.24844827861132E-11  -1.97178638783122E-16   1.97917550582720E-10   2.10401836190194E-10
     -7.41975352797168E-14  -4.00000000000000E+01  -4.00000000000000E+01   0.00000000000000E+00   9.90597646808339E-08
     -5.95208549647115E-15  -2.38731666838284E-07  -1.39671908109536E-07  -1.59113183891927E-13
      2.89149919765975E-09
      8.00000000000000E-01   8.00000000000000E-01   0.00000000000000E+00  -8.29650960593762E-12   8.49631357092089E-08
     -3.62051760442451E-12   8.49512186819985E-08   2.33285526200726E-13   0.00000000000000E+00   0.00000000000000E+00
      0.00000000000000E+00   7.60167684490729E-12  -1.97176924863079E-16   3.82737855826115E-08   3.82813870622795E-08
     -7.41932063548285E-14  -4.00000000000000E+01  -4.00000000000000E+01   0.00000000000000E+00   1.09210272864489E-07
     -5.95157979175675E-15  -2.32442872657187E-07  -1.23232605744278E-07  -1.59092319845897E-13
      3.04147386564125E-09
      8.00000000000000E-01   8.00000000000000E-01   0.00000000000000E+00  -5.48285518358459E-12   5.83875719588414E-08
     -3.29118175919960E-12   5.83787979218987E-08   2.33261463729311E-13   0.00000000000000E+00   0.00000000000000E+00
      0.00000000000000E+00   4.45396009545220E-12  -1.97175581541206E-16   5.53188553279919E-08   5.53233090909118E-08
     -7.41859026659540E-14  -4.00000000000000E+01  -4.00000000000000E+01   0.00000000000000E+00   1.14131395655106E-07
     -5.95117354167050E-15  -2.27833496716743E-07  -1.13702107012810E-07  -1.59075561063358E-13
      3.26643586761350E-09
      8.00000000000000E-01   8.00000000000000E-01   0.00000000000000E+00  -2.69108388838690E-12   3.49391139733014E-08
     -2.85192906779541E-12   3.49335709603452E-08   2.33221004576773E-13   0.00000000000000E+00   0.00000000000000E+00
      0.00000000000000E+00   1.22279037782574E-12  -1.97173677734308E-16   6.70669404842271E-08   6.70681630774313E-08
     -7.41716899305525E-14  -4.00000000000000E+01  -4.00000000000000E+01   0.00000000000000E+00   1.19024784796373E-07
     -5.95053722580023E-15  -2.21026512883612E-07  -1.02001734037777E-07  -1.59049314646221E-13
      3.43515736909269E-09
      8.00000000000000E-01   8.00000000000000E-01   0.00000000000000E+00  -1.53885135830929E-12   2.57395973902995E-08
     -2.56005721122727E-12   2.57354984817300E-08   2.33189005592877E-13   0.00000000000000E+00   0.00000000000000E+00
      0.00000000000000E+00  -1.42722525606726E-13  -1.97172437468966E-16   6.86563530365468E-08   6.86562101168488E-08
     -7.41599887796148E-14  -4.00000000000000E+01  -4.00000000000000E+01   0.00000000000000E+00   1.21524340690206E-07
     -5.95004506941731E-15  -2.15916043338740E-07  -9.43917085985786E-08  -1.59029016813262E-13
      3.56169849520208E-09
      8.00000000000000E-01   8.00000000000000E-01   0.00000000000000E+00  -1.03911776334246E-12   2.14870434721333E-08
     -2.35990155223781E-12   2.14836444528177E-08   2.33164753654132E-13   0.00000000000000E+00   0.00000000000000E+00
      0.00000000000000E+00  -7.46026637785169E-13  -1.97171646474555E-16   6.75321225375456E-08   6.75313763137361E-08
     -7.41512089603815E-14  -4.00000000000000E+01  -4.00000000000000E+01   0.00000000000000E+00   1.22988266733296E-07
     -5.94966989023961E-15  -2.12003281550180E-07  -8.90150207665538E-08  -1.59013544693751E-13
      3.65660433978412E-09
      8.00000000000000E-01   8.00000000000000E-01   0.00000000000000E+00  -7.95225589464267E-13   1.92025225583093E-08
     -2.21955626358771E-12   1.91995077764563E-08   2.33146593544616E-13   0.00000000000000E+00   0.00000000000000E+00
      0.00000000000000E+00  -1.03618260649113E-12  -1.97171135349360E-16   6.58970954162042E-08   6.58960590364266E-08
     -7.41447643941815E-14  -4.00000000000000E+01  -4.00000000000000E+01   0.00000000000000E+00   1.23884428225648E-07
     -5.94938578687520E-15  -2.08979989089145E-07  -8.50955668128826E-08  -1.59001829150436E-13
      3.79896310665719E-09
      8.00000000000000E-01   8.00000000000000E-01   0.00000000000000E+00  -5.60148315472049E-13   1.66651139752144E-08
     -2.02369994961658E-12   1.66625301269493E-08   2.33119570472802E-13   0.00000000000000E+00   0.00000000000000E+00
      0.00000000000000E+00  -1.30701238893991E-12  -1.97170495170916E-16   6.26812561675192E-08   6.26799489579597E-08
     -7.41354508403228E-14  -4.00000000000000E+01  -4.00000000000000E+01   0.00000000000000E+00   1.24877793838211E-07
     -5.94895630412374E-15  -2.04220266974163E-07  -7.93424790849089E-08  -1.58984119632478E-13
      3.85234764423459E-09
      8.00000000000000E-01   8.00000000000000E-01   0.00000000000000E+00  -5.03849530105906E-13   1.59089436392230E-08
     -1.95458774659316E-12   1.59064852019463E-08   2.33109531053188E-13   0.00000000000000E+00   0.00000000000000E+00
      0.00000000000000E+00  -1.37162607467902E-12  -1.97170292004002E-16   6.13130246188607E-08   6.13116527956157E-08
     -7.41320848422200E-14  -4.00000000000000E+01  -4.00000000000000E+01   0.00000000000000E+00   1.25129244191875E-07
     -5.94879445615390E-15  -2.02347376240642E-07  -7.72181379975618E-08  -1.58977446210969E-13
      3.86235724503035E-09
      8.00000000000000E-01   8.00000000000000E-01   0.00000000000000E+00  -4.96532538523645E-13   1.57758268685683E-08
     -1.94188238166403E-12   1.57733884536481E-08   2.33107655597285E-13   0.00000000000000E+00   0.00000000000000E+00
      0.00000000000000E+00  -1.36358368248571E-12  -1.97170256013532E-16   6.10496280758056E-08   6.10482642949528E-08
     -7.41314620764682E-14  -4.00000000000000E+01  -4.00000000000000E+01   0.00000000000000E+00   1.25168251209938E-07
     -5.94876407470510E-15  -2.01989898009775E-07  -7.68216527486009E-08  -1.58976193520816E-13
      3.87737164622399E-09
      8.00000000000000E-01   8.00000000000000E-01   0.00000000000000E+00  -4.83084505579097E-13   1.55807006961559E-08
     -1.92297185238406E-12   1.55782946397979E-08   2.33104846783113E-13   0.00000000000000E+00   0.00000000000000E+00
      0.00000000000000E+00  -1.40075479247073E-12  -1.97170203234888E-16   6.06511001304877E-08   6.06496991785251E-08
     -7.41305329939380E-14  -4.00000000000000E+01  -4.00000000000000E+01   0.00000000000000E+00   1.25221714318098E-07
     -5.94871848539313E-15  -2.01449702187702E-07  -7.62279938183230E-08  -1.58974313789174E-13
      3.89989324801446E-09
      8.00000000000000E-01   8.00000000000000E-01   0.00000000000000E+00  -4.64521592924368E-13   1.52976409835413E-08
     -1.89493513935702E-12   1.52952815268090E-08   2.33100643697599E-13   0.00000000000000E+00   0.00000000000000E+00
      0.00000000000000E+00  -1.41437672739493E-12  -1.97170126735925E-16   6.00460337186483E-08   6.00446191447508E-08
     -7.41291508877368E-14  -4.00000000000000E+01  -4.00000000000000E+01   0.00000000000000E+00   1.25290273127509E-07
     -5.94865006735649E-15  -2.00630167850419E-07  -7.53399006715598E-08  -1.58971492809861E-13
      3.93367565070016E-09
      8.00000000000000E-01   8.00000000000000E-01   0.00000000000000E+00  -4.37795387076821E-13   1.48928319787974E-08
     -1.85361100582540E-12   1.48905405724045E-08   2.33094362880171E-13   0.00000000000000E+00   0.00000000000000E+00