DF-ISE text

Info {
  version   = 1.0
  type      = xyplot
  datasets  = [
    "time"
    "Ntop OuterVoltage" "Ntop InnerVoltage" "Ntop QuasiFermiPotential" "Ntop DisplacementCurrent" "Ntop eCurrent"
    "Ntop hCurrent" "Ntop TotalCurrent" "Ntop Charge" "Ptop OuterVoltage" "Ptop InnerVoltage"
    "Ptop QuasiFermiPotential" "Ptop DisplacementCurrent" "Ptop eCurrent" "Ptop hCurrent" "Ptop TotalCurrent"
    "Ptop Charge" "Pbot OuterVoltage" "Pbot InnerVoltage" "Pbot QuasiFermiPotential" "Pbot DisplacementCurrent"
    "Pbot eCurrent" "Pbot hCurrent" "Pbot TotalCurrent" "Pbot Charge" ]
  functions = [
    Time
    OuterVoltage InnerVoltage QuasiFermiPotential DisplacementCurrent eCurrent
    hCurrent TotalCurrent Charge OuterVoltage InnerVoltage
    QuasiFermiPotential DisplacementCurrent eCurrent hCurrent TotalCurrent
    Charge OuterVoltage InnerVoltage QuasiFermiPotential DisplacementCurrent
    eCurrent hCurrent TotalCurrent Charge ]
}

Data {
      5.00000000000000E-13
      8.00000000000000E-01   8.00000000000000E-01   0.00000000000000E+00   2.25216167198632E-15   2.54685479288503E-13
      2.07480348378412E-17   2.56958388995327E-13   1.66264157121242E-13   0.00000000000000E+00   0.00000000000000E+00
      0.00000000000000E+00  -1.05691208875549E-13  -1.97164502216827E-16   8.03770733187046E-12   7.93181895849270E-12
     -7.55973310308380E-14  -1.10000000000000E+01  -1.10000000000000E+01   0.00000000000000E+00  -3.23385649921656E-13
      2.19354578717502E-11  -2.98008495693166E-11  -8.18877734748801E-12  -9.06668260904042E-14
      1.25000000000000E-12
      8.00000000000000E-01   8.00000000000000E-01   0.00000000000000E+00   4.11451178448866E-14   7.41619341873621E-13
      2.07480347563224E-17   7.82785207753264E-13   1.66264157119433E-13   0.00000000000000E+00   0.00000000000000E+00
      0.00000000000000E+00   1.75248910945550E-14  -1.97164502215280E-16   9.64414453966081E-12   9.66147226625315E-12
     -7.55973310282220E-14  -1.10000000000000E+01  -1.10000000000000E+01   0.00000000000000E+00  -1.92324689583420E-12
      1.01208917666957E-10  -1.09729928245130E-10  -1.04442574740064E-11  -9.06668260912106E-14
      2.37500000000000E-12
      8.00000000000000E-01   8.00000000000000E-01   0.00000000000000E+00   2.85711342190633E-13   6.63224805126798E-12
      2.07480355533591E-17   6.91798014149417E-12   1.66264157092722E-13   0.00000000000000E+00   0.00000000000000E+00
      0.00000000000000E+00   1.49970793748632E-12  -1.97164502280493E-16   2.88747093832208E-11   3.03742201562049E-11
     -7.55973309894784E-14  -1.10000000000000E+01  -1.10000000000000E+01   0.00000000000000E+00  -2.10151214786743E-11
      8.37172151776533E-10  -8.53449230595558E-10  -3.72922002976989E-11  -9.06668261032445E-14
      4.06250000000000E-12
      8.00000000000000E-01   8.00000000000000E-01   0.00000000000000E+00   4.29220110374890E-12   1.37144742366031E-10
      2.07480230893301E-17   1.41436964217803E-10   1.66264156302501E-13   0.00000000000000E+00   0.00000000000000E+00
      0.00000000000000E+00   2.20498774778739E-11  -1.97164500091261E-16   4.70629581591241E-10   4.92679261904615E-10
     -7.55973298369359E-14  -1.10000000000000E+01  -1.10000000000000E+01   0.00000000000000E+00  -4.46291659389356E-10
      1.26933891729312E-08  -1.28812137396643E-08  -6.34116226122412E-10  -9.06668264655645E-14
      6.59375000000000E-12
      8.00000000000000E-01   8.00000000000000E-01   0.00000000000000E+00   8.54518898793682E-11   4.02571140279472E-09
      2.07482557330617E-17   4.11116331342234E-09   1.66264122560216E-13   0.00000000000000E+00   0.00000000000000E+00
      0.00000000000000E+00   4.45443195699081E-10  -1.97164502505583E-16   1.39493774025746E-08   1.43948204011092E-08
     -7.55972802807248E-14  -1.10000000000000E+01  -1.10000000000000E+01   0.00000000000000E+00  -1.32096793998146E-08
      2.53800992399123E-07  -2.59097296713840E-07  -1.85059837145314E-08  -9.06668422794911E-14
      1.03906250000000E-11
      8.00000000000000E-01   8.00000000000000E-01   0.00000000000000E+00   7.13937170755625E-10   5.46207668549949E-08
      2.07478900884080E-17   5.53347040464985E-08   1.66263411971076E-13   0.00000000000000E+00   0.00000000000000E+00
      0.00000000000000E+00   3.72281059252545E-09  -1.97163474590195E-16   1.92427346557699E-07   1.96150156953061E-07
     -7.55962286192567E-14  -1.10000000000000E+01  -1.10000000000000E+01   0.00000000000000E+00  -1.79890261289552E-07
      2.10882850196634E-06  -2.18042310167635E-06  -2.51484860999559E-07  -9.06671833518187E-14
      1.60859375000000E-11
      8.00000000000000E-01   8.00000000000000E-01   0.00000000000000E+00   4.12622646051676E-10   1.34763115351357E-07
      2.07494522234658E-17   1.35175738018158E-07   1.66259845598347E-13   0.00000000000000E+00   0.00000000000000E+00
      0.00000000000000E+00   1.94908615299468E-09  -1.97162373383767E-16   4.75086508280374E-07   4.77035594236207E-07
     -7.55908723483443E-14  -1.10000000000000E+01  -1.10000000000000E+01   0.00000000000000E+00  -4.38022252889912E-07
      1.11120765985010E-06  -1.28539673921456E-06  -6.12211332254364E-07  -9.06689732500019E-14
      2.46289062500000E-11
      8.00000000000000E-01   8.00000000000000E-01   0.00000000000000E+00   4.57981577905919E-11   1.75907697671633E-07
      2.07492554258130E-17   1.75953495850173E-07   1.66251950302826E-13   0.00000000000000E+00   0.00000000000000E+00
      0.00000000000000E+00  -3.43288246531757E-11  -1.97162573771994E-16   5.88830511407159E-07   5.88796182385343E-07
     -7.55787080826596E-14  -1.10000000000000E+01  -1.10000000000000E+01   0.00000000000000E+00  -5.43024524317621E-07
      2.05905406259345E-09  -2.23784207980490E-07  -7.64749678235518E-07  -9.06732422201663E-14
      3.74433593750000E-11
      8.00000000000000E-01   8.00000000000000E-01   0.00000000000000E+00   3.84843280303174E-11   1.90114913145412E-07
      2.07483209918067E-17   1.90153397494190E-07   1.66240632043561E-13   0.00000000000000E+00   0.00000000000000E+00
      0.00000000000000E+00  -4.92815046340149E-11  -1.97159222642007E-16   5.78667482945521E-07   5.78618201243727E-07
     -7.55604681030904E-14  -1.10000000000000E+01  -1.10000000000000E+01   0.00000000000000E+00  -5.36868852650197E-07
     -3.51325576174721E-15  -2.31902742574463E-07  -7.68771598737916E-07  -9.06801639404718E-14
      5.66650390625000E-11
      8.00000000000000E-01   8.00000000000000E-01   0.00000000000000E+00   3.51807953024493E-11   2.08973739287992E-07
      2.07477856167313E-17   2.09008920104043E-07   1.66226602480397E-13   0.00000000000000E+00   0.00000000000000E+00
      0.00000000000000E+00  -5.38017797427740E-11  -1.97084761581758E-16   5.59376361851227E-07   5.59322559874399E-07
     -7.55362421938028E-14  -1.10000000000000E+01  -1.10000000000000E+01   0.00000000000000E+00  -5.24029088699906E-07
     -3.72413391638024E-15  -2.44302387554403E-07  -7.68331479978443E-07  -9.06903602865939E-14
      8.54975585937500E-11
      8.00000000000000E-01   8.00000000000000E-01   0.00000000000000E+00   3.52369130327287E-11   2.36080453886724E-07
      2.07481742349999E-17   2.36115690820505E-07   1.66210289416733E-13   0.00000000000000E+00   0.00000000000000E+00
      0.00000000000000E+00  -6.08052817705883E-11  -1.95518618421481E-16   5.27602642066817E-07   5.27541836589528E-07
     -7.55050992912443E-14  -1.10000000000000E+01  -1.10000000000000E+01   0.00000000000000E+00  -5.04695594365811E-07
     -3.85257923039472E-15  -2.58961929191641E-07  -7.63657527410031E-07  -9.07051901254889E-14
      1.28746337890625E-10
      8.00000000000000E-01   8.00000000000000E-01   0.00000000000000E+00   3.93169773691553E-11   2.79527468213534E-07
      2.07485552716271E-17   2.79566785211652E-07   1.66192944647722E-13   0.00000000000000E+00   0.00000000000000E+00
      0.00000000000000E+00  -7.03440751879115E-11  -1.70286499954359E-16   4.73191915331828E-07   4.73121571086354E-07
     -7.54665223744992E-14  -1.10000000000000E+01  -1.10000000000000E+01   0.00000000000000E+00  -4.77410119437032E-07
     -3.91967068263686E-15  -2.75278232941303E-07  -7.52688356298006E-07  -9.07264222732232E-14
      1.93619506835937E-10
      8.00000000000000E-01   8.00000000000000E-01   0.00000000000000E+00   4.16971412445401E-11   3.50631531731054E-07
      2.07490674777215E-17   3.50673228893048E-07   1.66177597119285E-13   0.00000000000000E+00   0.00000000000000E+00
      0.00000000000000E+00  -7.47639874517506E-11   1.23954076034430E-16   3.83093090412523E-07   3.83018326549026E-07
     -7.54213653617558E-14  -1.10000000000000E+01  -1.10000000000000E+01   0.00000000000000E+00  -4.42176110223272E-07
     -3.94656859859879E-15  -2.91515441272233E-07  -7.33691555442074E-07  -9.07562317575290E-14
      2.42274383544922E-10
      8.00000000000000E-01   8.00000000000000E-01   0.00000000000000E+00   4.01031856002118E-11   4.04110009878269E-07
      2.07491912915588E-17   4.04150113084619E-07   1.66172489568683E-13   0.00000000000000E+00   0.00000000000000E+00
      0.00000000000000E+00  -7.29028428871983E-11   8.50963127199058E-16   3.14797587431101E-07   3.14724685439177E-07
     -7.53952960517052E-14  -1.10000000000000E+01  -1.10000000000000E+01   0.00000000000000E+00  -4.19693236375595E-07
     -3.95137351746947E-15  -2.99181558196829E-07  -7.18874798523797E-07  -9.07771935169779E-14
      3.15256698608398E-10
      8.00000000000000E-01   8.00000000000000E-01   0.00000000000000E+00   3.45720261356160E-11   4.77292604233200E-07
      2.07492818305160E-17   4.77327176280085E-07   1.66172975978598E-13   0.00000000000000E+00   0.00000000000000E+00
      0.00000000000000E+00  -6.65043961220929E-11   3.59646331790828E-15   2.18103269522416E-07   2.18036768722757E-07
     -7.53662658267825E-14  -1.10000000000000E+01  -1.10000000000000E+01   0.00000000000000E+00  -3.89391723317983E-07
     -3.95392292053341E-15  -3.05972217730936E-07  -6.95363945002843E-07  -9.08067101518147E-14
      3.69993434906006E-10
      8.00000000000000E-01   8.00000000000000E-01   0.00000000000000E+00   2.88147378918521E-11   5.23727434323005E-07
      2.07494677916029E-17   5.23756249081647E-07   1.66178645820296E-13   0.00000000000000E+00   0.00000000000000E+00
      0.00000000000000E+00  -5.97341332175086E-11   7.47031837197889E-15   1.52568001097589E-07   1.52508274434690E-07
     -7.53512130599223E-14  -1.10000000000000E+01  -1.10000000000000E+01   0.00000000000000E+00  -3.67806554805886E-07
     -3.95483972898971E-15  -3.08457964755613E-07  -6.76264523516338E-07  -9.08274327603733E-14
      4.52098539352417E-10
      8.00000000000000E-01   8.00000000000000E-01   0.00000000000000E+00   1.94638397925464E-11   5.76708541362074E-07
      2.07497812633829E-17   5.76728005222617E-07   1.66193451756778E-13   0.00000000000000E+00   0.00000000000000E+00
      0.00000000000000E+00  -4.84601652601044E-11   1.68714795945400E-14   6.83854625311304E-08   6.83370192373498E-08
     -7.53371459289127E-14  -1.10000000000000E+01  -1.10000000000000E+01   0.00000000000000E+00  -3.35472673165563E-07
     -3.95593167442178E-15  -3.09592347338474E-07  -6.45065024459969E-07  -9.08563058278657E-14
      5.13677367687225E-10
      8.00000000000000E-01   8.00000000000000E-01   0.00000000000000E+00   1.29291097334664E-11   6.03341066073561E-07
      2.07498369877666E-17   6.03353995204044E-07   1.66208204124645E-13   0.00000000000000E+00   0.00000000000000E+00
      0.00000000000000E+00  -4.03946043301902E-11   2.68961594619219E-14   1.65858774113857E-08   1.65455097032150E-08
     -7.53319979635993E-14  -1.10000000000000E+01  -1.10000000000000E+01   0.00000000000000E+00  -3.10826162656626E-07
     -3.95665376365900E-15  -3.09073338293981E-07  -6.19899504907261E-07  -9.08762061610455E-14
      5.59861488938332E-10
      8.00000000000000E-01   8.00000000000000E-01   0.00000000000000E+00   8.70745063548144E-12   6.16708215754529E-07
      2.07499474610568E-17   6.16716923225915E-07   1.66220669929992E-13   0.00000000000000E+00   0.00000000000000E+00
      0.00000000000000E+00  -3.51022468098191E-11   3.60657124134183E-14  -1.64332371851878E-08  -1.64683033662853E-08
     -7.53305413815125E-14  -1.10000000000000E+01  -1.10000000000000E+01   0.00000000000000E+00  -2.92063197794349E-07
     -3.95715725550546E-15  -3.08185418108122E-07  -6.00248619859628E-07  -9.08901285484799E-14
      6.29137670814991E-10
      8.00000000000000E-01   8.00000000000000E-01   0.00000000000000E+00   3.64347251485579E-12   6.28114865843272E-07
      2.07498909490209E-17   6.28118509336537E-07   1.66240831388012E-13   0.00000000000000E+00   0.00000000000000E+00
      0.00000000000000E+00  -2.86326010417982E-11   5.22921012903234E-14  -5.81831266982190E-08  -5.82117070071595E-08
     -7.53314553130388E-14  -1.10000000000000E+01  -1.10000000000000E+01   0.00000000000000E+00  -2.63586368242018E-07
     -3.95785275207881E-15  -3.06320430129506E-07  -5.69906802329376E-07  -9.09093760749728E-14
      7.33051943629980E-10
      8.00000000000000E-01   8.00000000000000E-01   0.00000000000000E+00  -1.43159220589789E-12   6.31025597049988E-07
      2.07499852194802E-17   6.31024165478532E-07   1.66272859695056E-13   0.00000000000000E+00   0.00000000000000E+00
      0.00000000000000E+00  -2.18435770625527E-11   8.13759612575711E-14  -1.07621332708440E-07  -1.07643094909541E-07
     -7.53383264954295E-14  -1.10000000000000E+01  -1.10000000000000E+01   0.00000000000000E+00  -2.20609605108005E-07
     -3.95876125698596E-15  -3.02771461502228E-07  -5.23381070568994E-07  -9.09345331996261E-14
      8.10987648241222E-10
      8.00000000000000E-01   8.00000000000000E-01   0.00000000000000E+00  -3.77218626082204E-12   6.25621167432780E-07
      2.07499662664314E-17   6.25617395267269E-07   1.66297393729038E-13   0.00000000000000E+00   0.00000000000000E+00
      0.00000000000000E+00  -1.84096146153171E-11   1.06005750376157E-13  -1.37238743647950E-07  -1.37257047256815E-07
     -7.53469160981038E-14  -1.10000000000000E+01  -1.10000000000000E+01   0.00000000000000E+00  -1.88596942431040E-07
     -3.95933676879896E-15  -2.99763401620079E-07  -4.88360348010455E-07  -9.09504776309333E-14
      9.27891205158085E-10
      8.00000000000000E-01   8.00000000000000E-01   0.00000000000000E+00  -6.08887608495196E-12   6.10194393568642E-07
      2.07499488774357E-17   6.10188304713307E-07   1.66333813359804E-13   0.00000000000000E+00   0.00000000000000E+00
      0.00000000000000E+00  -1.44426784694734E-11   1.44983041395122E-13  -1.73401766623403E-07  -1.73416064318831E-07
     -7.53640345114014E-14  -1.10000000000000E+01  -1.10000000000000E+01   0.00000000000000E+00  -1.41774054511243E-07
     -3.96003308703788E-15  -2.94998181923201E-07  -4.36772240394477E-07  -9.09697788484030E-14
      1.01556887284573E-09
      8.00000000000000E-01   8.00000000000000E-01   0.00000000000000E+00  -7.45114929998751E-12   5.94345481544838E-07
      2.07498114570586E-17   5.94338030416288E-07   1.66360315702030E-13   0.00000000000000E+00   0.00000000000000E+00
      0.00000000000000E+00  -1.16530919475939E-11   1.73959452904046E-13  -1.94890044212006E-07  -1.94901523344500E-07
     -7.53795881464133E-14  -1.10000000000000E+01  -1.10000000000000E+01   0.00000000000000E+00  -1.08106855005766E-07
     -3.96042788441303E-15  -2.91329648105598E-07  -3.99436507071791E-07  -9.09807275556172E-14
      1.14708537437720E-09
      8.00000000000000E-01   8.00000000000000E-01   0.00000000000000E+00  -9.52989351258691E-12   5.64471772247951E-07
      2.07497491089154E-17   5.64462242375188E-07   1.66397906218096E-13   0.00000000000000E+00   0.00000000000000E+00
      0.00000000000000E+00  -6.94861923165841E-12   2.13254322761500E-13  -2.17748132374532E-07  -2.17754867739441E-07
     -7.54060895391568E-14  -1.10000000000000E+01  -1.10000000000000E+01   0.00000000000000E+00  -6.09143415585261E-08
     -3.96082762418242E-15  -2.85793029116393E-07  -3.46707374635747E-07  -9.09918166789399E-14
      1.34436012667441E-09
      8.00000000000000E-01   8.00000000000000E-01   0.00000000000000E+00  -1.27933842910400E-11   5.05269816889373E-07
      2.07496081839278E-17   5.05257023525832E-07   1.66447274869271E-13   0.00000000000000E+00   0.00000000000000E+00
      0.00000000000000E+00   1.08297488992569E-12   2.55701700155514E-13  -2.28096021968858E-07  -2.28094683292267E-07
     -7.54495917528932E-14  -1.10000000000000E+01  -1.10000000000000E+01   0.00000000000000E+00   3.53765568856814E-10
     -3.96103922711691E-15  -2.77516101841383E-07  -2.77162340233565E-07  -9.09976831163781E-14
      1.49231619089731E-09
      8.00000000000000E-01   8.00000000000000E-01   0.00000000000000E+00  -1.48020725794821E-11   4.50182739552718E-07
      2.07494710991295E-17   4.50167937500888E-07   1.66477025670252E-13   0.00000000000000E+00   0.00000000000000E+00
      0.00000000000000E+00   6.76090233486172E-12   2.71549740581094E-13  -2.16539850510692E-07  -2.16532818058617E-07
     -7.54822067332576E-14  -1.10000000000000E+01  -1.10000000000000E+01   0.00000000000000E+00   3.77013101724377E-08
     -3.96093641250344E-15  -2.71336425653772E-07  -2.33635119442271E-07  -9.09948189369946E-14
      1.71425028723167E-09
      8.00000000000000E-01   8.00000000000000E-01   0.00000000000000E+00  -1.59106360968268E-11   3.57651731329142E-07
      2.07491606725714E-17   3.57635820713794E-07   1.66507141813164E-13   0.00000000000000E+00   0.00000000000000E+00
      0.00000000000000E+00   1.22579912111407E-11   2.70507126934983E-13  -1.75378937810109E-07  -1.75366409311771E-07
     -7.55255038554686E-14  -1.10000000000000E+01  -1.10000000000000E+01   0.00000000000000E+00   7.97105885944056E-08
     -3.96046250963503E-15  -2.61979996035967E-07  -1.82269411402024E-07  -9.09816379576955E-14
      1.79747557335705E-09
      8.00000000000000E-01   8.00000000000000E-01   0.00000000000000E+00  -1.56356213503411E-11   3.22208865419378E-07
      2.07491090891067E-17   3.22193229818777E-07   1.66513667943673E-13   0.00000000000000E+00   0.00000000000000E+00
      0.00000000000000E+00   1.31286032380914E-11   2.63594238608849E-13  -1.55277976039026E-07  -1.55264583841549E-07
     -7.55391600278053E-14  -1.10000000000000E+01  -1.10000000000000E+01   0.00000000000000E+00   9.14638833049230E-08
     -3.96020610054334E-15  -2.58392525321943E-07  -1.66928645977226E-07  -9.09745079158683E-14
      1.92231350254513E-09
      8.00000000000000E-01   8.00000000000000E-01   0.00000000000000E+00  -1.46207307522724E-11   2.71156192183964E-07
      2.07489771871244E-17   2.71141571473961E-07   1.66518641623458E-13   0.00000000000000E+00   0.00000000000000E+00
      0.00000000000000E+00   1.32604050702672E-11   2.48421047944796E-13  -1.23960830945743E-07  -1.23947322119625E-07
     -7.55564579792537E-14  -1.10000000000000E+01  -1.10000000000000E+01   0.00000000000000E+00   1.05653744469005E-07
     -3.95976285634337E-15  -2.52847989863578E-07  -1.47194249354336E-07  -9.09621836442044E-14
      2.01594194943619E-09
      8.00000000000000E-01   8.00000000000000E-01   0.00000000000000E+00  -1.34861697180201E-11   2.35618278227904E-07
      2.07488358150093E-17   2.35604792078935E-07   1.66518803804233E-13   0.00000000000000E+00   0.00000000000000E+00
      0.00000000000000E+00   1.26010391822083E-11   2.34200223313167E-13  -1.01043437510827E-07  -1.01030602271421E-07
     -7.55669074382424E-14  -1.10000000000000E+01  -1.10000000000000E+01   0.00000000000000E+00   1.13937453863000E-07
     -3.95939284348348E-15  -2.48511639711120E-07  -1.34574189807514E-07  -9.09518963659904E-14
      2.08616328460448E-09
      8.00000000000000E-01   8.00000000000000E-01   0.00000000000000E+00  -1.25029216977422E-11   2.10977980808969E-07
      2.07487143034943E-17   2.10965477908020E-07   1.66517096340936E-13   0.00000000000000E+00   0.00000000000000E+00
      0.00000000000000E+00   1.17991245210204E-11   2.22448580720469E-13  -8.48610931918395E-08  -8.48490716187378E-08
     -7.55733817052370E-14  -1.10000000000000E+01  -1.10000000000000E+01   0.00000000000000E+00   1.19012431370546E-07
     -3.95909854973732E-15  -2.45128833700729E-07  -1.26116406289282E-07  -9.09437146356999E-14
      2.19149528735692E-09
      8.00000000000000E-01   8.00000000000000E-01   0.00000000000000E+00  -1.09291330774214E-11   1.77647566884294E-07
      2.07485873889842E-17   1.77636637771965E-07   1.66511941267433E-13   0.00000000000000E+00   0.00000000000000E+00
      0.00000000000000E+00   1.02941240116035E-11   2.03783477363099E-13  -6.28994971444567E-08  -6.28889992369677E-08
     -7.55810882450940E-14  -1.10000000000000E+01  -1.10000000000000E+01   0.00000000000000E+00   1.25047378000555E-07
     -3.95863591014957E-15  -2.39795012576917E-07  -1.14747638534997E-07  -9.09308530223404E-14
      2.34949329148557E-09
      8.00000000000000E-01   8.00000000000000E-01   0.00000000000000E+00  -8.59256402731207E-12   1.36021855154266E-07
      2.07485484158889E-17   1.36013262610987E-07   1.66499379895718E-13   0.00000000000000E+00   0.00000000000000E+00
      0.00000000000000E+00   7.78434433220793E-12   1.75004198306897E-13  -3.60077934681122E-08  -3.59998341195817E-08
     -7.55887821785689E-14  -1.10000000000000E+01  -1.10000000000000E+01   0.00000000000000E+00   1.31067921444095E-07
     -3.95790732234623E-15  -2.31081345977594E-07  -1.00013428491406E-07  -9.09105977171501E-14
      2.58649029767856E-09
      8.00000000000000E-01   8.00000000000000E-01   0.00000000000000E+00  -5.63557503323670E-12   9.06918622245875E-08
      2.07482929678577E-17   9.06862266703025E-08   1.66472982696492E-13   0.00000000000000E+00   0.00000000000000E+00
      0.00000000000000E+00   4.38042255796121E-12   1.33842529092963E-13  -9.10293997536038E-09  -9.09842571027332E-09
     -7.55939122084654E-14  -1.10000000000000E+01  -1.10000000000000E+01   0.00000000000000E+00   1.34465501572555E-07
     -3.95677344073889E-15  -2.16053298575811E-07  -8.15878009600293E-08  -9.08790704880267E-14
      2.76423805232330E-09
      8.00000000000000E-01   8.00000000000000E-01   0.00000000000000E+00  -4.00311899134704E-12   6.76299625528842E-08
      2.07483050827546E-17   6.76259594546412E-08   1.66449708014721E-13   0.00000000000000E+00   0.00000000000000E+00
      0.00000000000000E+00   2.47469318173111E-12   1.06536229841171E-13   2.20235091858843E-09   2.20493214800000E-09
     -7.55944512397591E-14  -1.10000000000000E+01  -1.10000000000000E+01   0.00000000000000E+00   1.33231917337369E-07
     -3.95591722577576E-15  -2.03062804984093E-07  -6.98308916026411E-08  -9.08552567749612E-14
      3.03085968429041E-09
      8.00000000000000E-01   8.00000000000000E-01   0.00000000000000E+00  -2.38824319569437E-12   4.48362006919135E-08
      2.07481885127247E-17   4.48338124694660E-08   1.66413335675404E-13   0.00000000000000E+00   0.00000000000000E+00
      0.00000000000000E+00   6.80386548300068E-13   7.30348215591325E-14   9.75787954304697E-09   9.75863296441683E-09
     -7.55927384517036E-14  -1.10000000000000E+01  -1.10000000000000E+01   0.00000000000000E+00   1.26280067942813E-07
     -3.95467167759363E-15  -1.80872509422024E-07  -5.45924454338829E-08  -9.08205972236999E-14
      3.23082590826575E-09
      8.00000000000000E-01   8.00000000000000E-01   0.00000000000000E+00  -1.65916486299546E-12   3.39493402404576E-08
      2.07481583528617E-17   3.39476810963428E-08   1.66386834793036E-13   0.00000000000000E+00   0.00000000000000E+00
      0.00000000000000E+00  -2.23018772285239E-14   5.37439554181766E-14   1.08396588581124E-08   1.08396903001906E-08
     -7.55906511263991E-14  -1.10000000000000E+01  -1.10000000000000E+01   0.00000000000000E+00   1.17685246599744E-07
     -3.95379492819326E-15  -1.62472614042482E-07  -4.47873713965335E-08  -9.07961836666368E-14
      3.53077524422875E-09
      8.00000000000000E-01   8.00000000000000E-01   0.00000000000000E+00  -1.00830533648230E-12   2.32443948207537E-08
      2.07481464660990E-17   2.32433865361654E-08   1.66350956597692E-13   0.00000000000000E+00   0.00000000000000E+00
      0.00000000000000E+00  -4.75345114689375E-13   3.28283523674003E-14   9.18876690882870E-09   9.18832439206638E-09
     -7.55876151735899E-14  -1.10000000000000E+01  -1.10000000000000E+01   0.00000000000000E+00   1.01005342718687E-07
     -3.95261649111759E-15  -1.33437049694302E-07  -3.24317109282319E-08  -9.07633414241013E-14
      3.75573724620100E-09
      8.00000000000000E-01   8.00000000000000E-01   0.00000000000000E+00  -7.24871284327670E-13   1.79883540403014E-08
      2.07480905260912E-17   1.79876291897651E-08   1.66328014979543E-13   0.00000000000000E+00   0.00000000000000E+00
      0.00000000000000E+00  -5.46855790596746E-13   2.22180350966330E-14   6.92452015317756E-09   6.92399551542206E-09
     -7.55858010626598E-14  -1.10000000000000E+01  -1.10000000000000E+01   0.00000000000000E+00   8.67667768893932E-08
     -3.95185917621332E-15  -1.11678397642721E-07  -2.49116247051872E-08  -9.07422139168817E-14
      3.92445874768018E-09
      8.00000000000000E-01   8.00000000000000E-01   0.00000000000000E+00  -5.77060539487686E-13   1.50173147869146E-08
      2.07481329966933E-17   1.50167377471233E-08   1.66313279253929E-13   0.00000000000000E+00   0.00000000000000E+00
      0.00000000000000E+00  -5.24222324686995E-13   1.64152292845484E-14   5.17081727742242E-09   5.17030947032702E-09
     -7.55847823184753E-14  -1.10000000000000E+01  -1.10000000000000E+01   0.00000000000000E+00   7.58405903339700E-08
     -3.95136789821905E-15  -9.60276336000523E-08  -2.01870472174502E-08  -9.07284969354533E-14
      4.17754099989896E-09
      8.00000000000000E-01   8.00000000000000E-01   0.00000000000000E+00  -4.16864584630276E-13   1.16237948719408E-08
      2.07481021572137E-17   1.16233780281042E-08   1.66295094289359E-13   0.00000000000000E+00   0.00000000000000E+00
      0.00000000000000E+00  -4.38797246211743E-13   1.02443956474161E-14   2.80947806386943E-09   2.80904951101886E-09
     -7.55837790028210E-14  -1.10000000000000E+01  -1.10000000000000E+01   0.00000000000000E+00   6.00423418030227E-08
     -3.95075307148258E-15  -7.44747653913928E-08  -1.44324275391231E-08  -9.07113152865365E-14
      4.55716437822713E-09
      8.00000000000000E-01   8.00000000000000E-01   0.00000000000000E+00  -2.62572832933472E-13   8.15877398869982E-09
      2.07480892520170E-17   8.15851143661497E-09   1.66275734542402E-13   0.00000000000000E+00   0.00000000000000E+00
      0.00000000000000E+00  -2.79199226814782E-13   4.83165143040424E-15   1.82159381547297E-10   1.81885013971913E-10
     -7.55832326201572E-14  -1.10000000000000E+01  -1.10000000000000E+01   0.00000000000000E+00   3.94777085353466E-08
     -3.95008073786688E-15  -4.78181010358528E-08  -8.34039645058689E-09  -9.06925019222439E-14
      5.12659944571939E-09
      8.00000000000000E-01   8.00000000000000E-01   0.00000000000000E+00  -1.36052467206461E-13   5.13508237692643E-09
      2.07480645623266E-17   5.13494634520729E-09   1.66260155177232E-13   0.00000000000000E+00   0.00000000000000E+00
      0.00000000000000E+00  -9.35604755478827E-14   1.34000600485327E-15  -1.82256848555953E-09  -1.82266070602907E-09
     -7.55837502681366E-14  -1.10000000000000E+01  -1.10000000000000E+01   0.00000000000000E+00   1.80433238313853E-08
     -3.94950658500693E-15  -2.13556055210569E-08  -3.31228563917823E-09  -9.06764049090959E-14
      5.55367574633858E-09
      8.00000000000000E-01   8.00000000000000E-01   0.00000000000000E+00  -8.65558236204448E-14   3.85668137477553E-09
      2.07480582928622E-17   3.85659483969997E-09   1.66255376444591E-13   0.00000000000000E+00   0.00000000000000E+00
      0.00000000000000E+00  -1.77637327575794E-14   4.26350870224966E-16  -2.26895902309986E-09  -2.26897636048175E-09
     -7.55846367594549E-14  -1.10000000000000E+01  -1.10000000000000E+01   0.00000000000000E+00   8.91344951971891E-09
     -3.94930500089706E-15  -1.05010640496321E-08  -1.58761847921822E-09  -9.06707396851360E-14
      6.19429019726737E-09
      8.00000000000000E-01   8.00000000000000E-01   0.00000000000000E+00  -4.69441874752806E-14   2.71613538968733E-09
      2.07480512442945E-17   2.71608846624791E-09   1.66253346473729E-13   0.00000000000000E+00   0.00000000000000E+00
      0.00000000000000E+00   2.59744863261733E-14  -5.34457569936075E-17  -2.19894868810709E-09  -2.19892276706652E-09
     -7.55860839131598E-14  -1.10000000000000E+01  -1.10000000000000E+01   0.00000000000000E+00   2.47015997056772E-09
     -3.94918152744308E-15  -2.98732172056759E-09  -5.17165699181397E-10  -9.06672625605690E-14
      6.67475103546396E-09
      8.00000000000000E-01   8.00000000000000E-01   0.00000000000000E+00  -3.19671059595740E-14   2.20506692351299E-09
      2.07480477879873E-17   2.20503497715508E-09   1.66253593280608E-13   0.00000000000000E+00   0.00000000000000E+00
      0.00000000000000E+00   2.98252366476838E-14  -1.48265199044792E-16  -1.94325169463146E-09  -1.94322201766002E-09
     -7.55870820557711E-14  -1.10000000000000E+01  -1.10000000000000E+01   0.00000000000000E+00   7.83208813797372E-10
     -3.94915493301321E-15  -1.04501782413752E-09  -2.61812959495077E-10  -9.06665112248369E-14
      7.39544229275885E-09
      8.00000000000000E-01   8.00000000000000E-01   0.00000000000000E+00  -1.97345929279166E-14   1.70507453248136E-09
      2.07480441278561E-17   1.70505481863647E-09   1.66254603110797E-13   0.00000000000000E+00   0.00000000000000E+00
      0.00000000000000E+00   2.45246046437292E-14  -1.88726035628823E-16  -1.56938109741451E-09  -1.56935676153590E-09
     -7.55883493236190E-14  -1.10000000000000E+01  -1.10000000000000E+01   0.00000000000000E+00   2.32620950579086E-11
     -3.94914587245410E-15  -1.58956203012600E-10  -1.35698057100563E-10  -9.06662537871781E-14
      7.93596073573002E-09
      8.00000000000000E-01   8.00000000000000E-01   0.00000000000000E+00  -1.46974796563725E-14   1.45331749607889E-09
      2.07480423790296E-17   1.45330281934727E-09   1.66255407750600E-13   0.00000000000000E+00   0.00000000000000E+00